80
# CELL(abcABC):   13.18034    17.29206    24.21758    90.00000    66.14000    90.00000  cell{atomic_unit}  Traj: positions{angstrom} Step:           0  Bead:       0 
       C  8.32411e+00  5.50734e+00  9.63997e+00
       H  8.14828e+00  6.57705e+00  9.40205e+00
       H  7.63329e+00  5.32799e+00  1.04711e+01
       H  9.14937e+00  5.29216e+00  9.95950e+00
       C  7.90421e+00  4.70055e+00  8.43726e+00
       O  6.70253e+00  4.61243e+00  8.08924e+00
       N  8.91233e+00  4.10208e+00  7.75895e+00
       H  9.84443e+00  4.18558e+00  8.17641e+00
       C  8.84522e+00  3.26575e+00  6.62119e+00
       C  7.78854e+00  3.27587e+00  5.70159e+00
       H  6.95513e+00  3.95640e+00  5.82864e+00
       C  7.80630e+00  2.40860e+00  4.60969e+00
       H  6.98386e+00  2.43805e+00  3.89684e+00
       C  9.93096e+00  2.40361e+00  6.40724e+00
       H  1.07628e+01  2.40648e+00  7.11015e+00
       C  9.94977e+00  1.54041e+00  5.31616e+00
       H  1.07886e+01  8.62363e-01  5.17676e+00
       C  8.87757e+00  1.52845e+00  4.41359e+00
       O  8.82412e+00  6.67051e-01  3.35182e+00
       H  9.72324e+00  3.08216e-01  3.09328e+00
       C  6.42142e+00  1.00811e+01  7.93434e+00
       H  5.39615e+00  9.86590e+00  7.61483e+00
       H  7.21223e+00  9.90173e+00  7.10317e+00
       H  6.59724e+00  1.11508e+01  8.17225e+00
       C  6.84133e+00  9.27432e+00  9.13706e+00
       O  8.04301e+00  9.18623e+00  9.48509e+00
       N  5.83322e+00  8.67584e+00  9.81537e+00
       H  4.90112e+00  8.75933e+00  9.39793e+00
       C  5.90034e+00  7.83952e+00  1.09531e+01
       C  4.81461e+00  6.97736e+00  1.11671e+01
       H  3.98278e+00  6.98024e+00  1.04642e+01
       C  4.79582e+00  6.11415e+00  1.22582e+01
       H  3.95697e+00  5.43611e+00  1.23976e+01
       C  6.95704e+00  7.84962e+00  1.18727e+01
       H  7.79045e+00  8.53016e+00  1.17457e+01
       C  6.93929e+00  6.98233e+00  1.29646e+01
       H  7.76174e+00  7.01179e+00  1.36775e+01
       C  5.86802e+00  6.10220e+00  1.31607e+01
       O  5.92150e+00  5.24077e+00  1.42225e+01
       H  5.02237e+00  4.88196e+00  1.44810e+01
       C  3.83039e+00  3.64013e+00  2.07625e+00
       H  4.42121e+00  3.81951e+00  1.24508e+00
       H  3.90623e+00  2.57042e+00  2.31415e+00
       H  2.70512e+00  3.85531e+00  1.75673e+00
       C  4.25029e+00  4.44691e+00  3.27898e+00
       O  5.45197e+00  4.53505e+00  3.62698e+00
       N  3.24217e+00  5.04537e+00  3.95728e+00
       H  2.31007e+00  4.96185e+00  3.53985e+00
       C  3.30928e+00  5.88172e+00  5.09504e+00
       C  2.22355e+00  6.74388e+00  5.30898e+00
       H  1.39173e+00  6.74102e+00  4.60606e+00
       C  2.20474e+00  7.60708e+00  6.40005e+00
       H  1.36590e+00  8.28514e+00  6.53944e+00
       C  4.36597e+00  5.87161e+00  6.01463e+00
       H  5.19939e+00  5.19109e+00  5.88757e+00
       C  4.34821e+00  6.73889e+00  7.10652e+00
       H  5.17066e+00  6.70944e+00  7.81936e+00
       C  3.27694e+00  7.61902e+00  7.30263e+00
       O  3.33038e+00  8.48041e+00  8.36441e+00
       H  2.43125e+00  8.83923e+00  8.62297e+00
       C  5.73310e+00 -9.33623e-01  3.78188e+00
       H  5.04229e+00 -7.54231e-01  4.61305e+00
       H  6.75837e+00 -7.18422e-01  4.10139e+00
       H  5.65726e+00 -2.00333e+00  3.54399e+00
       C  5.31318e+00 -1.26869e-01  2.57915e+00
       O  4.11150e+00 -3.87555e-02  2.23114e+00
       N  6.32129e+00  4.71607e-01  1.90083e+00
       H  7.25340e+00  3.88098e-01  2.31826e+00
       C  6.25417e+00  1.30796e+00  7.63085e-01
       C  7.33989e+00  2.17012e+00  5.49131e-01
       H  8.17172e+00  2.16726e+00  1.25204e+00
       C  7.35869e+00  3.03333e+00 -5.41932e-01
       H  8.19753e+00  3.71140e+00 -6.81326e-01
       C  5.19747e+00  1.29786e+00 -1.56497e-01
       H  4.36406e+00  6.17340e-01 -2.94301e-02
       C  5.21521e+00  2.16515e+00 -1.24838e+00
       H  4.39275e+00  2.13570e+00 -1.96121e+00
       C  6.28648e+00  3.04528e+00 -1.44450e+00
       O  6.23302e+00  3.90669e+00 -2.50626e+00
       H  7.13215e+00  4.26548e+00 -2.76485e+00
80
# CELL(abcABC):   13.18034    17.29206    24.21758    90.00000    66.14000    90.00000  cell{atomic_unit}  Traj: positions{angstrom} Step:           1  Bead:       0 
       C  8.26429e+00  5.52478e+00  9.62258e+00
       H  8.15569e+00  6.57242e+00  9.40230e+00
       H  7.63362e+00  5.32477e+00  1.04690e+01
       H  9.20254e+00  5.28205e+00  9.97522e+00
       C  7.87007e+00  4.70070e+00  8.42574e+00
       O  6.72813e+00  4.61599e+00  8.10119e+00
       N  8.92666e+00  4.09850e+00  7.76031e+00
       H  9.84181e+00  4.18345e+00  8.17723e+00
       C  8.84470e+00  3.26561e+00  6.62180e+00
       C  7.78742e+00  3.27584e+00  5.70455e+00
       H  6.95563e+00  3.95625e+00  5.82841e+00
       C  7.80463e+00  2.40584e+00  4.60448e+00
       H  6.98508e+00  2.43706e+00  3.89792e+00
       C  9.93208e+00  2.40859e+00  6.41120e+00
       H  1.07617e+01  2.40608e+00  7.10880e+00
       C  9.95102e+00  1.53447e+00  5.30893e+00
       H  1.07868e+01  8.63629e-01  5.17717e+00
       C  8.87829e+00  1.53557e+00  4.42201e+00
       O  8.82435e+00  6.61930e-01  3.34482e+00
       H  9.72084e+00  3.13605e-01  3.09808e+00
       C  6.44511e+00  1.00846e+01  7.92462e+00
       H  5.39708e+00  9.86689e+00  7.61387e+00
       H  7.19396e+00  9.90119e+00  7.11619e+00
       H  6.59049e+00  1.11459e+01  8.17300e+00
       C  6.87490e+00  9.27524e+00  9.14928e+00
       O  8.01744e+00  9.18984e+00  9.47319e+00
       N  5.81904e+00  8.67244e+00  9.81384e+00
       H  4.90372e+00  8.75720e+00  9.39710e+00
       C  5.90086e+00  7.83937e+00  1.09525e+01
       C  4.81348e+00  6.98234e+00  1.11631e+01
       H  3.98384e+00  6.97980e+00  1.04655e+01
       C  4.79455e+00  6.10822e+00  1.22654e+01
       H  3.95867e+00  5.43720e+00  1.23972e+01
       C  6.95816e+00  7.84958e+00  1.18698e+01
       H  7.78995e+00  8.53001e+00  1.17459e+01
       C  6.94098e+00  6.97958e+00  1.29698e+01
       H  7.76053e+00  7.01080e+00  1.36764e+01
       C  5.86729e+00  6.10935e+00  1.31523e+01
       O  5.92101e+00  5.23588e+00  1.42296e+01
       H  5.02480e+00  4.88735e+00  1.44763e+01
       C  3.78840e+00  3.63728e+00  2.08204e+00
       H  4.43294e+00  3.82532e+00  1.23316e+00
       H  3.90625e+00  2.57282e+00  2.31504e+00
       H  2.73337e+00  3.85089e+00  1.76587e+00
       C  4.28621e+00  4.44647e+00  3.29009e+00
       O  5.42634e+00  4.53136e+00  3.61511e+00
       N  3.22795e+00  5.04869e+00  3.95560e+00
       H  2.31268e+00  4.96398e+00  3.53903e+00
       C  3.30984e+00  5.88190e+00  5.09441e+00
       C  2.22243e+00  6.73890e+00  5.30501e+00
       H  1.39282e+00  6.74142e+00  4.60741e+00
       C  2.20350e+00  7.61300e+00  6.40728e+00
       H  1.36787e+00  8.28362e+00  6.53895e+00
       C  4.36710e+00  5.87167e+00  6.01163e+00
       H  5.19888e+00  5.19125e+00  5.88779e+00
       C  4.34989e+00  6.74165e+00  7.11173e+00
       H  5.16945e+00  6.71043e+00  7.81828e+00
       C  3.27621e+00  7.61190e+00  7.29423e+00
       O  3.33013e+00  8.48552e+00  8.37143e+00
       H  2.43365e+00  8.83384e+00  8.61817e+00
       C  5.73277e+00 -9.37788e-01  3.78156e+00
       H  5.04369e+00 -7.52130e-01  4.61202e+00
       H  6.75749e+00 -7.17391e-01  4.10081e+00
       H  5.65837e+00 -2.00095e+00  3.54274e+00
       C  5.27842e+00 -1.27800e-01  2.56731e+00
       O  4.13711e+00 -4.24556e-02  2.24298e+00
       N  6.33548e+00  4.74988e-01  1.90233e+00
       H  7.25080e+00  3.90235e-01  2.31909e+00
       C  6.25361e+00  1.30814e+00  7.63706e-01
       C  7.34099e+00  2.16512e+00  5.53084e-01
       H  8.17060e+00  2.16762e+00  1.25067e+00
       C  7.35994e+00  3.03925e+00 -5.49178e-01
       H  8.19571e+00  3.71013e+00 -6.80924e-01
       C  5.19634e+00  1.29793e+00 -1.53503e-01
       H  4.36455e+00  6.17487e-01 -2.96535e-02
       C  5.21352e+00  2.16791e+00 -1.25359e+00
       H  4.39396e+00  2.13669e+00 -1.96014e+00
       C  6.28719e+00  3.03818e+00 -1.43610e+00
       O  6.23292e+00  3.91201e+00 -2.51318e+00
       H  7.12972e+00  4.26009e+00 -2.76006e+00
80
# CELL(abcABC):   13.18034    17.29206    24.21758    90.00000    66.14000    90.00000  cell{atomic_unit}  Traj: positions{angstrom} Step:           2  Bead:       0 
       C  8.24109e+00  5.52811e+00  9.61510e+00
       H  8.15935e+00  6.57502e+00  9.40023e+00
       H  7.62891e+00  5.32166e+00  1.04696e+01
       H  9.22977e+00  5.27788e+00  9.98083e+00
       C  7.88354e+00  4.70266e+00  8.42470e+00
       O  6.71376e+00  4.61539e+00  8.10000e+00
       N  8.92377e+00  4.09841e+00  7.76148e+00
       H  9.84388e+00  4.18175e+00  8.18032e+00
       C  8.84713e+00  3.26560e+00  6.62381e+00
       C  7.78621e+00  3.27423e+00  5.70507e+00
       H  6.95583e+00  3.95639e+00  5.82845e+00
       C  7.80384e+00  2.40624e+00  4.60430e+00
       H  6.98524e+00  2.43578e+00  3.89764e+00
       C  9.93235e+00  2.40961e+00  6.40979e+00
       H  1.07615e+01  2.40597e+00  7.10849e+00
       C  9.95181e+00  1.53438e+00  5.30852e+00
       H  1.07863e+01  8.63330e-01  5.17672e+00
       C  8.87783e+00  1.53601e+00  4.42158e+00
       O  8.82274e+00  6.61711e-01  3.34333e+00
       H  9.72118e+00  3.17576e-01  3.10190e+00
       C  6.45742e+00  1.00843e+01  7.92496e+00
       H  5.40262e+00  9.86832e+00  7.61413e+00
       H  7.18303e+00  9.89964e+00  7.12198e+00
       H  6.58524e+00  1.11431e+01  8.17356e+00
       C  6.85668e+00  9.27901e+00  9.14680e+00
       O  8.03176e+00  9.18990e+00  9.47375e+00
       N  5.82235e+00  8.67203e+00  9.81329e+00
       H  4.90167e+00  8.75547e+00  9.39399e+00
       C  5.89843e+00  7.83948e+00  1.09505e+01
       C  4.81320e+00  6.98335e+00  1.11645e+01
       H  3.98395e+00  6.97964e+00  1.04658e+01
       C  4.79371e+00  6.10810e+00  1.22658e+01
       H  3.95908e+00  5.43676e+00  1.23977e+01
       C  6.95937e+00  7.84797e+00  1.18693e+01
       H  7.78976e+00  8.53016e+00  1.17459e+01
       C  6.94176e+00  6.97998e+00  1.29700e+01
       H  7.76036e+00  7.00952e+00  1.36767e+01
       C  5.86770e+00  6.10982e+00  1.31527e+01
       O  5.92249e+00  5.23588e+00  1.42312e+01
       H  5.02440e+00  4.89131e+00  1.44725e+01
       C  3.77955e+00  3.63665e+00  2.08675e+00
       H  4.43683e+00  3.82875e+00  1.22905e+00
       H  3.90437e+00  2.57442e+00  2.31588e+00
       H  2.74614e+00  3.84937e+00  1.77182e+00
       C  4.26125e+00  4.44357e+00  3.28705e+00
       O  5.44241e+00  4.53038e+00  3.61458e+00
       N  3.23286e+00  5.04958e+00  3.95582e+00
       H  2.31062e+00  4.96567e+00  3.53591e+00
       C  3.30744e+00  5.88187e+00  5.09228e+00
       C  2.22217e+00  6.73788e+00  5.30641e+00
       H  1.39298e+00  6.74152e+00  4.60773e+00
       C  2.20278e+00  7.61303e+00  6.40768e+00
       H  1.36844e+00  8.28375e+00  6.53932e+00
       C  4.36833e+00  5.87333e+00  6.01108e+00
       H  5.19868e+00  5.19111e+00  5.88776e+00
       C  4.35067e+00  6.74126e+00  7.11190e+00
       H  5.16928e+00  6.71171e+00  7.81856e+00
       C  3.27664e+00  7.61144e+00  7.29469e+00
       O  3.33175e+00  8.48573e+00  8.37292e+00
       H  2.43331e+00  8.82987e+00  8.61436e+00
       C  5.72840e+00 -9.38437e-01  3.77825e+00
       H  5.04520e+00 -7.50510e-01  4.61132e+00
       H  6.75657e+00 -7.16159e-01  4.09977e+00
       H  5.65943e+00 -2.00010e+00  3.54150e+00
       C  5.29887e+00 -1.31100e-01  2.56933e+00
       O  4.12194e+00 -4.28979e-02  2.24275e+00
       N  6.33149e+00  4.75524e-01  1.90260e+00
       H  7.25284e+00  3.91953e-01  2.32220e+00
       C  6.25597e+00  1.30814e+00  7.65783e-01
       C  7.34123e+00  2.16409e+00  5.51665e-01
       H  8.17039e+00  2.16768e+00  1.25033e+00
       C  7.36073e+00  3.03932e+00 -5.49613e-01
       H  8.19521e+00  3.71041e+00 -6.81349e-01
       C  5.19510e+00  1.29960e+00 -1.52929e-01
       H  4.36475e+00  6.17340e-01 -2.96205e-02
       C  5.21273e+00  2.16753e+00 -1.25376e+00
       H  4.39412e+00  2.13797e+00 -1.96042e+00
       C  6.28671e+00  3.03774e+00 -1.43658e+00
       O  6.23110e+00  3.91245e+00 -2.51460e+00
       H  7.12994e+00  4.25609e+00 -2.75624e+00
80
# CELL(abcABC):   13.18034    17.29206    24.21758    90.00000    66.14000    90.00000  cell{atomic_unit}  Traj: positions{angstrom} Step:           3  Bead:       0 
       C  8.24741e+00  5.52467e+00  9.61739e+00
       H  8.16086e+00  6.58082e+00  9.39664e+00
       H  7.62095e+00  5.31815e+00  1.04713e+01
       H  9.23805e+00  5.27840e+00  9.97939e+00
       C  7.88093e+00  4.70433e+00  8.41977e+00
       O  6.70855e+00  4.61455e+00  8.09992e+00
       N  8.92381e+00  4.09829e+00  7.76321e+00
       H  9.84558e+00  4.17990e+00  8.18343e+00
       C  8.84780e+00  3.26580e+00  6.62486e+00
       C  7.78600e+00  3.27238e+00  5.70586e+00
       H  6.95588e+00  3.95656e+00  5.82858e+00
       C  7.80356e+00  2.40712e+00  4.60548e+00
       H  6.98491e+00  2.43444e+00  3.89685e+00
       C  9.93331e+00  2.40930e+00  6.40738e+00
       H  1.07616e+01  2.40594e+00  7.10830e+00
       C  9.95183e+00  1.53620e+00  5.30966e+00
       H  1.07864e+01  8.62416e-01  5.17599e+00
       C  8.87690e+00  1.53445e+00  4.41853e+00
       O  8.82005e+00  6.63564e-01  3.34421e+00
       H  9.72269e+00  3.21085e-01  3.10527e+00
       C  6.45618e+00  1.00837e+01  7.92893e+00
       H  5.41174e+00  9.87033e+00  7.61500e+00
       H  7.17769e+00  9.89675e+00  7.12292e+00
       H  6.58113e+00  1.11418e+01  8.17439e+00
       C  6.85740e+00  9.28210e+00  9.14812e+00
       O  8.03284e+00  9.19067e+00  9.47139e+00
       N  5.82165e+00  8.67168e+00  9.81171e+00
       H  4.90016e+00  8.75343e+00  9.39111e+00
       C  5.89801e+00  7.83972e+00  1.09498e+01
       C  4.81221e+00  6.98305e+00  1.11669e+01
       H  3.98387e+00  6.97956e+00  1.04660e+01
       C  4.79361e+00  6.10987e+00  1.22647e+01
       H  3.95895e+00  5.43574e+00  1.23985e+01
       C  6.95958e+00  7.84617e+00  1.18684e+01
       H  7.78972e+00  8.53033e+00  1.17457e+01
       C  6.94203e+00  6.98087e+00  1.29688e+01
       H  7.76069e+00  7.00818e+00  1.36775e+01
       C  5.86858e+00  6.10832e+00  1.31558e+01
       O  5.92519e+00  5.23796e+00  1.42305e+01
       H  5.02277e+00  4.89479e+00  1.44691e+01
       C  3.78511e+00  3.63592e+00  2.08727e+00
       H  4.43621e+00  3.83123e+00  1.23029e+00
       H  3.90152e+00  2.57529e+00  2.31711e+00
       H  2.74992e+00  3.84928e+00  1.77563e+00
       C  4.25870e+00  4.44117e+00  3.28925e+00
       O  5.43983e+00  4.52782e+00  3.60872e+00
       N  3.23155e+00  5.05125e+00  3.95550e+00
       H  2.30971e+00  4.96779e+00  3.53344e+00
       C  3.30752e+00  5.88186e+00  5.09167e+00
       C  2.22122e+00  6.73813e+00  5.30874e+00
       H  1.39295e+00  6.74155e+00  4.60793e+00
       C  2.20283e+00  7.61113e+00  6.40652e+00
       H  1.36840e+00  8.28454e+00  6.53999e+00
       C  4.36855e+00  5.87521e+00  6.01019e+00
       H  5.19863e+00  5.19094e+00  5.88758e+00
       C  4.35095e+00  6.74038e+00  7.11072e+00
       H  5.16960e+00  6.71306e+00  7.81935e+00
       C  3.27756e+00  7.61294e+00  7.29779e+00
       O  3.33443e+00  8.48390e+00  8.37204e+00
       H  2.43182e+00  8.82635e+00  8.61099e+00
       C  5.72827e+00 -9.38395e-01  3.77652e+00
       H  5.04616e+00 -7.48682e-01  4.61051e+00
       H  6.75437e+00 -7.15309e-01  4.09833e+00
       H  5.66023e+00 -2.00021e+00  3.53988e+00
       C  5.29928e+00 -1.33782e-01  2.56693e+00
       O  4.12176e+00 -4.43039e-02  2.24623e+00
       N  6.33233e+00  4.76375e-01  1.90361e+00
       H  7.25407e+00  3.94006e-01  2.32492e+00
       C  6.25612e+00  1.30809e+00  7.66570e-01
       C  7.34217e+00  2.16437e+00  5.49278e-01
       H  8.17037e+00  2.16767e+00  1.25011e+00
       C  7.36074e+00  3.03748e+00 -5.48503e-01
       H  8.19525e+00  3.71127e+00 -6.82041e-01
       C  5.19483e+00  1.30151e+00 -1.52033e-01
       H  4.36479e+00  6.17173e-01 -2.94605e-02
       C  5.21244e+00  2.16666e+00 -1.25257e+00
       H  4.39379e+00  2.13933e+00 -1.96121e+00
       C  6.28575e+00  3.03929e+00 -1.43970e+00
       O  6.22832e+00  3.91080e+00 -2.51365e+00
       H  7.13122e+00  4.25252e+00 -2.75286e+00
80
# CELL(abcABC):   13.18034    17.29206    24.21758    90.00000    66.14000    90.00000  cell{atomic_unit}  Traj: positions{angstrom} Step:           4  Bead:       0 
       C  8.26422e+00  5.51773e+00  9.62479e+00
       H  8.16825e+00  6.59605e+00  9.38454e+00
       H  7.59333e+00  5.30499e+00  1.04737e+01
       H  9.27193e+00  5.27986e+00  9.97402e+00
       C  7.87037e+00  4.71274e+00  8.40433e+00
       O  6.69157e+00  4.61156e+00  8.10019e+00
       N  8.92478e+00  4.09644e+00  7.76833e+00
       H  9.85031e+00  4.17244e+00  8.19576e+00
       C  8.85058e+00  3.26496e+00  6.62723e+00
       C  7.78480e+00  3.26775e+00  5.71134e+00
       H  6.95665e+00  3.95640e+00  5.82906e+00
       C  7.80232e+00  2.40708e+00  4.60611e+00
       H  6.98411e+00  2.42951e+00  3.89483e+00
       C  9.93697e+00  2.41178e+00  6.40286e+00
       H  1.07615e+01  2.40552e+00  7.10662e+00
       C  9.95162e+00  1.53808e+00  5.30702e+00
       H  1.07855e+01  8.60129e-01  5.17375e+00
       C  8.87366e+00  1.53480e+00  4.41499e+00
       O  8.81366e+00  6.66851e-01  3.34353e+00
       H  9.72506e+00  3.36455e-01  3.11951e+00
       C  6.45730e+00  1.00833e+01  7.94311e+00
       H  5.44161e+00  9.87659e+00  7.61766e+00
       H  7.15642e+00  9.88509e+00  7.12739e+00
       H  6.56474e+00  1.11379e+01  8.17824e+00
       C  6.85947e+00  9.29249e+00  9.15541e+00
       O  8.03703e+00  9.19392e+00  9.46184e+00
       N  5.81895e+00  8.67046e+00  9.80530e+00
       H  4.89521e+00  8.74506e+00  9.37966e+00
       C  5.89571e+00  7.83892e+00  1.09481e+01
       C  4.80869e+00  6.98556e+00  1.11716e+01
       H  3.98378e+00  6.97896e+00  1.04677e+01
       C  4.79351e+00  6.11161e+00  1.22674e+01
       H  3.95962e+00  5.43302e+00  1.24010e+01
       C  6.96110e+00  7.84179e+00  1.18630e+01
       H  7.78897e+00  8.53024e+00  1.17451e+01
       C  6.94323e+00  6.98090e+00  1.29682e+01
       H  7.76148e+00  7.00328e+00  1.36795e+01
       C  5.87160e+00  6.10890e+00  1.31594e+01
       O  5.93120e+00  5.24198e+00  1.42318e+01
       H  5.02012e+00  4.91011e+00  1.44549e+01
       C  3.79996e+00  3.63442e+00  2.09101e+00
       H  4.43620e+00  3.84165e+00  1.23346e+00
       H  3.89116e+00  2.57699e+00  2.32233e+00
       H  2.76641e+00  3.84873e+00  1.79112e+00
       C  4.24953e+00  4.43058e+00  3.29595e+00
       O  5.43207e+00  4.51858e+00  3.58726e+00
       N  3.22530e+00  5.05688e+00  3.95311e+00
       H  2.30636e+00  4.97687e+00  3.52382e+00
       C  3.30628e+00  5.88462e+00  5.09140e+00
       C  2.21816e+00  6.73543e+00  5.31338e+00
       H  1.39301e+00  6.74192e+00  4.60956e+00
       C  2.20321e+00  7.60894e+00  6.40905e+00
       H  1.36940e+00  8.28636e+00  6.54197e+00
       C  4.37067e+00  5.87986e+00  6.00469e+00
       H  5.19783e+00  5.19103e+00  5.88675e+00
       C  4.35219e+00  6.74042e+00  7.11005e+00
       H  5.17034e+00  6.71800e+00  7.82135e+00
       C  3.28078e+00  7.61243e+00  7.30155e+00
       O  3.34091e+00  8.48072e+00  8.37265e+00
       H  2.42951e+00  8.81092e+00  8.59679e+00
       C  5.72723e+00 -9.38914e-01  3.76983e+00
       H  5.05000e+00 -7.41301e-01  4.60671e+00
       H  6.74663e+00 -7.11592e-01  4.09256e+00
       H  5.66343e+00 -2.00071e+00  3.53344e+00
       C  5.30103e+00 -1.44539e-01  2.55831e+00
       O  4.12061e+00 -4.96415e-02  2.25948e+00
       N  6.33616e+00  4.79524e-01  1.90783e+00
       H  7.25813e+00  4.02578e-01  2.33563e+00
       C  6.25774e+00  1.31005e+00  7.67888e-01
       C  7.34533e+00  2.16178e+00  5.44558e-01
       H  8.17012e+00  2.16787e+00  1.24838e+00
       C  7.36047e+00  3.03545e+00 -5.51252e-01
       H  8.19420e+00  3.71327e+00 -6.84096e-01
       C  5.19289e+00  1.30632e+00 -1.46387e-01
       H  4.36556e+00  6.17292e-01 -2.87486e-02
       C  5.21112e+00  2.16673e+00 -1.25191e+00
       H  4.39299e+00  2.14428e+00 -1.96321e+00
       C  6.28246e+00  3.03897e+00 -1.44350e+00
       O  6.22106e+00  3.90813e+00 -2.51377e+00
       H  7.13290e+00  4.23701e+00 -2.73875e+00
80
# CELL(abcABC):   13.18034    17.29206    24.21758    90.00000    66.14000    90.00000  cell{atomic_unit}  Traj: positions{angstrom} Step:           5  Bead:       0 
       C  8.26759e+00  5.51891e+00  9.62747e+00
       H  8.17372e+00  6.59609e+00  9.38066e+00
       H  7.58399e+00  5.29926e+00  1.04698e+01
       H  9.28658e+00  5.28107e+00  9.97004e+00
       C  7.86739e+00  4.71879e+00  8.40122e+00
       O  6.68628e+00  4.61042e+00  8.10059e+00
       N  8.92438e+00  4.09469e+00  7.76967e+00
       H  9.85022e+00  4.16816e+00  8.20229e+00
       C  8.85174e+00  3.26447e+00  6.62842e+00
       C  7.78429e+00  3.26565e+00  5.71360e+00
       H  6.95723e+00  3.95588e+00  5.82972e+00
       C  7.80101e+00  2.40671e+00  4.60640e+00
       H  6.98372e+00  2.42704e+00  3.89419e+00
       C  9.93859e+00  2.41318e+00  6.40103e+00
       H  1.07621e+01  2.40525e+00  7.10558e+00
       C  9.95147e+00  1.53816e+00  5.30403e+00
       H  1.07845e+01  8.59303e-01  5.17244e+00
       C  8.87208e+00  1.53634e+00  4.41526e+00
       O  8.81181e+00  6.68569e-01  3.34328e+00
       H  9.72565e+00  3.44917e-01  3.12708e+00
       C  6.46093e+00  1.00848e+01  7.94961e+00
       H  5.45074e+00  9.87788e+00  7.61850e+00
       H  7.14690e+00  9.87834e+00  7.12938e+00
       H  6.55645e+00  1.11383e+01  8.18122e+00
       C  6.86046e+00  9.29647e+00  9.16057e+00
       O  8.03898e+00  9.19557e+00  9.45736e+00
       N  5.81747e+00  8.66886e+00  9.80332e+00
       H  4.89399e+00  8.74022e+00  9.37331e+00
       C  5.89460e+00  7.83898e+00  1.09463e+01
       C  4.80711e+00  6.98692e+00  1.11736e+01
       H  3.98327e+00  6.97863e+00  1.04688e+01
       C  4.79358e+00  6.11165e+00  1.22705e+01
       H  3.96060e+00  5.43199e+00  1.24024e+01
       C  6.96183e+00  7.83980e+00  1.18607e+01
       H  7.78850e+00  8.52989e+00  1.17442e+01
       C  6.94456e+00  6.98062e+00  1.29679e+01
       H  7.76183e+00  7.00082e+00  1.36801e+01
       C  5.87303e+00  6.11050e+00  1.31593e+01
       O  5.93265e+00  5.24406e+00  1.42325e+01
       H  5.01933e+00  4.91853e+00  1.44472e+01
       C  3.80318e+00  3.63393e+00  2.09376e+00
       H  4.43800e+00  3.84770e+00  1.23461e+00
       H  3.88658e+00  2.57607e+00  2.32540e+00
       H  2.77415e+00  3.84885e+00  1.79915e+00
       C  4.24651e+00  4.42458e+00  3.29814e+00
       O  5.42969e+00  4.51458e+00  3.57783e+00
       N  3.22209e+00  5.05935e+00  3.95180e+00
       H  2.30417e+00  4.98264e+00  3.51855e+00
       C  3.30514e+00  5.88604e+00  5.09062e+00
       C  2.21670e+00  6.73443e+00  5.31570e+00
       H  1.39266e+00  6.74211e+00  4.61069e+00
       C  2.20347e+00  7.60873e+00  6.41209e+00
       H  1.37049e+00  8.28697e+00  6.54313e+00
       C  4.37201e+00  5.88214e+00  6.00267e+00
       H  5.19744e+00  5.19127e+00  5.88562e+00
       C  4.35371e+00  6.74077e+00  7.10984e+00
       H  5.17067e+00  6.72049e+00  7.82199e+00
       C  3.28233e+00  7.61086e+00  7.30140e+00
       O  3.34293e+00  8.47912e+00  8.37281e+00
       H  2.42900e+00  8.80241e+00  8.58929e+00
       C  5.72671e+00 -9.39942e-01  3.76663e+00
       H  5.05193e+00 -7.37199e-01  4.60385e+00
       H  6.74375e+00 -7.09180e-01  4.08929e+00
       H  5.66515e+00 -2.00137e+00  3.52997e+00
       C  5.30165e+00 -1.50135e-01  2.55479e+00
       O  4.12022e+00 -5.22039e-02  2.26562e+00
       N  6.33806e+00  4.81487e-01  1.90929e+00
       H  7.25945e+00  4.07761e-01  2.34146e+00
       C  6.25870e+00  1.31087e+00  7.69204e-01
       C  7.34675e+00  2.16057e+00  5.42407e-01
       H  8.17046e+00  2.16800e+00  1.24723e+00
       C  7.36018e+00  3.03526e+00 -5.54364e-01
       H  8.19300e+00  3.71384e+00 -6.85249e-01
       C  5.19179e+00  1.30857e+00 -1.44189e-01
       H  4.36599e+00  6.17636e-01 -2.77794e-02
       C  5.20967e+00  2.16711e+00 -1.25166e+00
       H  4.39260e+00  2.14678e+00 -1.96385e+00
       C  6.28081e+00  3.03738e+00 -1.44326e+00
       O  6.21846e+00  3.90668e+00 -2.51355e+00
       H  7.13293e+00  4.22842e+00 -2.73141e+00
80
# CELL(abcABC):   13.18034    17.29206    24.21758    90.00000    66.14000    90.00000  cell{atomic_unit}  Traj: positions{angstrom} Step:           6  Bead:       0 
       C  8.27155e+00  5.52171e+00  9.62996e+00
       H  8.18279e+00  6.58979e+00  9.37783e+00
       H  7.57671e+00  5.29293e+00  1.04589e+01
       H  9.29930e+00  5.28437e+00  9.96194e+00
       C  7.86468e+00  4.72760e+00  8.40062e+00
       O  6.68531e+00  4.60994e+00  8.10227e+00
       N  8.92280e+00  4.09302e+00  7.77241e+00
       H  9.84636e+00  4.16134e+00  8.21123e+00
       C  8.85234e+00  3.26318e+00  6.62902e+00
       C  7.78381e+00  3.26348e+00  5.71633e+00
       H  6.95822e+00  3.95452e+00  5.83127e+00
       C  7.79856e+00  2.40582e+00  4.60717e+00
       H  6.98292e+00  2.42377e+00  3.89375e+00
       C  9.94065e+00  2.41465e+00  6.39867e+00
       H  1.07637e+01  2.40481e+00  7.10373e+00
       C  9.95127e+00  1.53846e+00  5.29954e+00
       H  1.07825e+01  8.58278e-01  5.17007e+00
       C  8.86957e+00  1.53912e+00  4.41674e+00
       O  8.81020e+00  6.72105e-01  3.34414e+00
       H  9.72670e+00  3.56934e-01  3.13754e+00
       C  6.46514e+00  1.00880e+01  7.95766e+00
       H  5.45708e+00  9.87739e+00  7.61986e+00
       H  7.13695e+00  9.86804e+00  7.13112e+00
       H  6.54573e+00  1.11426e+01  8.18673e+00
       C  6.86098e+00  9.30067e+00  9.16835e+00
       O  8.04228e+00  9.19736e+00  9.45277e+00
       N  5.81594e+00  8.66644e+00  9.80110e+00
       H  4.89420e+00  8.73264e+00  9.36401e+00
       C  5.89323e+00  7.83821e+00  1.09445e+01
       C  4.80532e+00  6.98853e+00  1.11760e+01
       H  3.98191e+00  6.97811e+00  1.04708e+01
       C  4.79374e+00  6.11187e+00  1.22751e+01
       H  3.96258e+00  5.43077e+00  1.24049e+01
       C  6.96253e+00  7.83800e+00  1.18576e+01
       H  7.78780e+00  8.52889e+00  1.17422e+01
       C  6.94698e+00  6.97982e+00  1.29671e+01
       H  7.76256e+00  6.99756e+00  1.36806e+01
       C  5.87535e+00  6.11343e+00  1.31580e+01
       O  5.93360e+00  5.24813e+00  1.42323e+01
       H  5.01778e+00  4.93042e+00  1.44365e+01
       C  3.80582e+00  3.63244e+00  2.09727e+00
       H  4.44150e+00  3.85652e+00  1.23724e+00
       H  3.88107e+00  2.57291e+00  2.32999e+00
       H  2.78128e+00  3.85013e+00  1.80971e+00
       C  4.24310e+00  4.41673e+00  3.30063e+00
       O  5.42889e+00  4.51002e+00  3.56713e+00
       N  3.21850e+00  5.06141e+00  3.94892e+00
       H  2.30077e+00  4.99226e+00  3.51096e+00
       C  3.30363e+00  5.88841e+00  5.08982e+00
       C  2.21473e+00  6.73391e+00  5.31888e+00
       H  1.39161e+00  6.74245e+00  4.61289e+00
       C  2.20376e+00  7.60857e+00  6.41705e+00
       H  1.37250e+00  8.28773e+00  6.54529e+00
       C  4.37364e+00  5.88456e+00  5.99989e+00
       H  5.19700e+00  5.19197e+00  5.88309e+00
       C  4.35657e+00  6.74175e+00  7.10935e+00
       H  5.17145e+00  6.72383e+00  7.82256e+00
       C  3.28495e+00  7.60797e+00  7.30011e+00
       O  3.34490e+00  8.47585e+00  8.37175e+00
       H  2.42819e+00  8.79030e+00  8.57898e+00
       C  5.72666e+00 -9.42100e-01  3.76248e+00
       H  5.05430e+00 -7.31204e-01  4.59877e+00
       H  6.74121e+00 -7.05255e-01  4.08424e+00
       H  5.66761e+00 -2.00315e+00  3.52501e+00
       C  5.30329e+00 -1.57245e-01  2.55079e+00
       O  4.11946e+00 -5.54471e-02  2.27282e+00
       N  6.33988e+00  4.83547e-01  1.91169e+00
       H  7.26008e+00  4.16164e-01  2.34982e+00
       C  6.25976e+00  1.31259e+00  7.70372e-01
       C  7.34848e+00  2.15945e+00  5.39610e-01
       H  8.17159e+00  2.16826e+00  1.24509e+00
       C  7.35970e+00  3.03487e+00 -5.59174e-01
       H  8.19073e+00  3.71436e+00 -6.87340e-01
       C  5.19050e+00  1.31086e+00 -1.41238e-01
       H  4.36656e+00  6.18590e-01 -2.55830e-02
       C  5.20690e+00  2.16805e+00 -1.25098e+00
       H  4.39175e+00  2.15012e+00 -1.96436e+00
       C  6.27803e+00  3.03439e+00 -1.44172e+00
       O  6.21557e+00  3.90356e+00 -2.51184e+00
       H  7.13278e+00  4.21608e+00 -2.72152e+00
80
# CELL(abcABC):   13.18034    17.29206    24.21758    90.00000    66.14000    90.00000  cell{atomic_unit}  Traj: positions{angstrom} Step:           7  Bead:       0 
       C  8.27460e+00  5.52279e+00  9.62924e+00
       H  8.19240e+00  6.58052e+00  9.37743e+00
       H  7.57536e+00  5.28879e+00  1.04447e+01
       H  9.30376e+00  5.28884e+00  9.95235e+00
       C  7.86854e+00  4.73514e+00  8.40342e+00
       O  6.68709e+00  4.61076e+00  8.10458e+00
       N  8.91910e+00  4.09201e+00  7.77521e+00
       H  9.83963e+00  4.15411e+00  8.21982e+00
       C  8.85222e+00  3.26217e+00  6.62988e+00
       C  7.78324e+00  3.26203e+00  5.71788e+00
       H  6.95910e+00  3.95275e+00  5.83355e+00
       C  7.79561e+00  2.40496e+00  4.60867e+00
       H  6.98169e+00  2.42095e+00  3.89383e+00
       C  9.94220e+00  2.41529e+00  6.39653e+00
       H  1.07659e+01  2.40437e+00  7.10143e+00
       C  9.95113e+00  1.53947e+00  5.29591e+00
       H  1.07801e+01  8.57355e-01  5.16705e+00
       C  8.86704e+00  1.54192e+00  4.41880e+00
       O  8.80947e+00  6.76759e-01  3.34625e+00
       H  9.72826e+00  3.68206e-01  3.14703e+00
       C  6.46645e+00  1.00919e+01  7.96341e+00
       H  5.45729e+00  9.87478e+00  7.62206e+00
       H  7.13108e+00  9.85799e+00  7.13236e+00
       H  6.53683e+00  1.11502e+01  8.19305e+00
       C  6.86209e+00  9.30389e+00  9.17509e+00
       O  8.04470e+00  9.19824e+00  9.45059e+00
       N  5.81521e+00  8.66355e+00  9.80018e+00
       H  4.89644e+00  8.72462e+00  9.35486e+00
       C  5.89214e+00  7.83690e+00  1.09435e+01
       C  4.80381e+00  6.98914e+00  1.11782e+01
       H  3.97999e+00  6.97759e+00  1.04734e+01
       C  4.79399e+00  6.11296e+00  1.22788e+01
       H  3.96499e+00  5.42976e+00  1.24081e+01
       C  6.96286e+00  7.83688e+00  1.18553e+01
       H  7.78731e+00  8.52760e+00  1.17393e+01
       C  6.94988e+00  6.97922e+00  1.29654e+01