80
# CELL(abcABC):   13.17884    17.29009    24.21482    90.00000    66.14000    90.00000  cell{atomic_unit}  Traj: positions{atomic_unit} Step:           0  Bead:       0 
       C  1.57303e+01  1.04074e+01  1.82169e+01
       H  1.53980e+01  1.24288e+01  1.77673e+01
       H  1.44248e+01  1.00684e+01  1.97876e+01
       H  1.72898e+01  1.00007e+01  1.88207e+01
       C  1.49368e+01  8.88275e+00  1.59441e+01
       O  1.26659e+01  8.71622e+00  1.52864e+01
       N  1.68419e+01  7.75181e+00  1.46623e+01
       H  1.86033e+01  7.90960e+00  1.54512e+01
       C  1.67150e+01  6.17137e+00  1.25122e+01
       C  1.47182e+01  6.19050e+00  1.07744e+01
       H  1.31433e+01  7.47652e+00  1.10145e+01
       C  1.47518e+01  4.55159e+00  8.71106e+00
       H  1.31976e+01  4.60725e+00  7.36397e+00
       C  1.87668e+01  4.54216e+00  1.21079e+01
       H  2.03387e+01  4.54759e+00  1.34362e+01
       C  1.88023e+01  2.91095e+00  1.00461e+01
       H  2.03875e+01  1.62963e+00  9.78267e+00
       C  1.67762e+01  2.88836e+00  8.34049e+00
       O  1.66752e+01  1.26054e+00  6.33403e+00
       H  1.83743e+01  5.82444e-01  5.84545e+00
       C  1.21347e+01  1.90505e+01  1.49937e+01
       H  1.01972e+01  1.86438e+01  1.43899e+01
       H  1.36291e+01  1.87116e+01  1.34230e+01
       H  1.24670e+01  2.10720e+01  1.54433e+01
       C  1.29282e+01  1.75259e+01  1.72665e+01
       O  1.51991e+01  1.73595e+01  1.79242e+01
       N  1.10232e+01  1.63950e+01  1.85484e+01
       H  9.26178e+00  1.65527e+01  1.77595e+01
       C  1.11500e+01  1.48145e+01  2.06984e+01
       C  9.09830e+00  1.31853e+01  2.11027e+01
       H  7.52637e+00  1.31907e+01  1.97745e+01
       C  9.06279e+00  1.15541e+01  2.31646e+01
       H  7.47758e+00  1.02728e+01  2.34280e+01
       C  1.31469e+01  1.48336e+01  2.24362e+01
       H  1.47218e+01  1.61197e+01  2.21961e+01
       C  1.31134e+01  1.31947e+01  2.44996e+01
       H  1.46676e+01  1.32504e+01  2.58466e+01
       C  1.10890e+01  1.15315e+01  2.48702e+01
       O  1.11900e+01  9.90362e+00  2.68766e+01
       H  9.49090e+00  9.22557e+00  2.73652e+01
       C  7.23839e+00  6.87885e+00  3.92354e+00
       H  8.35487e+00  7.21783e+00  2.35286e+00
       H  7.38171e+00  4.85740e+00  4.37312e+00
       H  5.11194e+00  7.28549e+00  3.31974e+00
       C  8.03188e+00  8.40344e+00  6.19637e+00
       O  1.03027e+01  8.56999e+00  6.85400e+00
       N  6.12681e+00  9.53437e+00  7.47818e+00
       H  4.36540e+00  9.37654e+00  6.68934e+00
       C  6.25363e+00  1.11148e+01  9.62822e+00
       C  4.20190e+00  1.27441e+01  1.00325e+01
       H  2.62999e+00  1.27387e+01  8.70420e+00
       C  4.16636e+00  1.43753e+01  1.20943e+01
       H  2.58119e+00  1.56566e+01  1.23578e+01
       C  8.25049e+00  1.10957e+01  1.13660e+01
       H  9.82542e+00  9.80974e+00  1.11259e+01
       C  8.21693e+00  1.27347e+01  1.34294e+01
       H  9.77113e+00  1.26790e+01  1.47764e+01
       C  6.19251e+00  1.43979e+01  1.38000e+01
       O  6.29351e+00  1.60257e+01  1.58065e+01
       H  4.59440e+00  1.67037e+01  1.62951e+01
       C  1.08340e+01 -1.76429e+00  7.14673e+00
       H  9.52854e+00 -1.42529e+00  8.71740e+00
       H  1.27715e+01 -1.35762e+00  7.75051e+00
       H  1.06907e+01 -3.78575e+00  6.69718e+00
       C  1.00405e+01 -2.39748e-01  4.87388e+00
       O  7.76961e+00 -7.32372e-02  4.21624e+00
       N  1.19455e+01  8.91209e-01  3.59205e+00
       H  1.37069e+01  7.33400e-01  4.38088e+00
       C  1.18187e+01  2.47169e+00  1.44202e+00
       C  1.38704e+01  4.10093e+00  1.03771e+00
       H  1.54423e+01  4.09552e+00  2.36601e+00
       C  1.39059e+01  5.73217e+00 -1.02410e+00
       H  1.54911e+01  7.01352e+00 -1.28752e+00
       C  9.82180e+00  2.45260e+00 -2.95737e-01
       H  8.24687e+00  1.16660e+00 -5.56148e-02
       C  9.85531e+00  4.09154e+00 -2.35910e+00
       H  8.30110e+00  4.03589e+00 -3.70615e+00
       C  1.18797e+01  5.75474e+00 -2.72971e+00
       O  1.17787e+01  7.38257e+00 -4.73615e+00
       H  1.34778e+01  8.06060e+00 -5.22480e+00
80
# CELL(abcABC):   13.17884    17.29009    24.21482    90.00000    66.14000    90.00000  cell{atomic_unit}  Traj: positions{atomic_unit} Step:           1  Bead:       0 
       C  1.56172e+01  1.04403e+01  1.81840e+01
       H  1.54120e+01  1.24201e+01  1.77678e+01
       H  1.44255e+01  1.00624e+01  1.97835e+01
       H  1.73903e+01  9.98162e+00  1.88504e+01
       C  1.48723e+01  8.88304e+00  1.59223e+01
       O  1.27143e+01  8.72298e+00  1.53090e+01
       N  1.68689e+01  7.74505e+00  1.46648e+01
       H  1.85983e+01  7.90558e+00  1.54527e+01
       C  1.67141e+01  6.17111e+00  1.25134e+01
       C  1.47161e+01  6.19044e+00  1.07800e+01
       H  1.31442e+01  7.47622e+00  1.10141e+01
       C  1.47486e+01  4.54638e+00  8.70121e+00
       H  1.31999e+01  4.60537e+00  7.36600e+00
       C  1.87689e+01  4.55158e+00  1.21154e+01
       H  2.03366e+01  4.54683e+00  1.34337e+01
       C  1.88047e+01  2.89973e+00  1.00324e+01
       H  2.03841e+01  1.63203e+00  9.78343e+00
       C  1.67775e+01  2.90181e+00  8.35638e+00
       O  1.66755e+01  1.25088e+00  6.32082e+00
       H  1.83697e+01  5.92640e-01  5.85450e+00
       C  1.21795e+01  1.90571e+01  1.49754e+01
       H  1.01990e+01  1.86457e+01  1.43881e+01
       H  1.35946e+01  1.87105e+01  1.34477e+01
       H  1.24542e+01  2.10626e+01  1.54447e+01
       C  1.29916e+01  1.75277e+01  1.72896e+01
       O  1.51507e+01  1.73663e+01  1.79017e+01
       N  1.09964e+01  1.63885e+01  1.85455e+01
       H  9.26669e+00  1.65487e+01  1.77579e+01
       C  1.11510e+01  1.48143e+01  2.06973e+01
       C  9.09617e+00  1.31947e+01  2.10952e+01
       H  7.52836e+00  1.31899e+01  1.97770e+01
       C  9.06039e+00  1.15429e+01  2.31782e+01
       H  7.48079e+00  1.02748e+01  2.34274e+01
       C  1.31490e+01  1.48335e+01  2.24306e+01
       H  1.47209e+01  1.61194e+01  2.21965e+01
       C  1.31165e+01  1.31895e+01  2.45094e+01
       H  1.46653e+01  1.32485e+01  2.58446e+01
       C  1.10876e+01  1.15450e+01  2.48543e+01
       O  1.11891e+01  9.89438e+00  2.68900e+01
       H  9.49548e+00  9.23577e+00  2.73562e+01
       C  7.15905e+00  6.87347e+00  3.93448e+00
       H  8.37705e+00  7.22880e+00  2.33033e+00
       H  7.38175e+00  4.86192e+00  4.37480e+00
       H  5.16532e+00  7.27712e+00  3.33701e+00
       C  8.09973e+00  8.40261e+00  6.21737e+00
       O  1.02543e+01  8.56301e+00  6.83157e+00
       N  6.09997e+00  9.54064e+00  7.47503e+00
       H  4.37033e+00  9.38056e+00  6.68778e+00
       C  6.25469e+00  1.11152e+01  9.62703e+00
       C  4.19980e+00  1.27347e+01  1.00250e+01
       H  2.63205e+00  1.27394e+01  8.70675e+00
       C  4.16402e+00  1.43865e+01  1.21080e+01
       H  2.58490e+00  1.56538e+01  1.23568e+01
       C  8.25263e+00  1.10959e+01  1.13604e+01
       H  9.82446e+00  9.81004e+00  1.11263e+01
       C  8.22009e+00  1.27399e+01  1.34392e+01
       H  9.76883e+00  1.26809e+01  1.47744e+01
       C  6.19113e+00  1.43844e+01  1.37841e+01
       O  6.29309e+00  1.60353e+01  1.58197e+01
       H  4.59894e+00  1.66935e+01  1.62860e+01
       C  1.08334e+01 -1.77216e+00  7.14611e+00
       H  9.53120e+00 -1.42132e+00  8.71544e+00
       H  1.27698e+01 -1.35567e+00  7.74941e+00
       H  1.06928e+01 -3.78124e+00  6.69480e+00
       C  9.97480e+00 -2.41499e-01  4.85150e+00
       O  7.81804e+00 -8.02401e-02  4.23863e+00
       N  1.19723e+01  8.97611e-01  3.59489e+00
       H  1.37020e+01  7.37432e-01  4.38245e+00
       C  1.18176e+01  2.47204e+00  1.44320e+00
       C  1.38725e+01  4.09149e+00  1.04518e+00
       H  1.54402e+01  4.09620e+00  2.36342e+00
       C  1.39083e+01  5.74336e+00 -1.03779e+00
       H  1.54877e+01  7.01113e+00 -1.28676e+00
       C  9.81965e+00  2.45273e+00 -2.90082e-01
       H  8.24781e+00  1.16688e+00 -5.60372e-02
       C  9.85214e+00  4.09677e+00 -2.36892e+00
       H  8.30339e+00  4.03777e+00 -3.70412e+00
       C  1.18811e+01  5.74133e+00 -2.71384e+00
       O  1.17785e+01  7.39262e+00 -4.74917e+00
       H  1.34732e+01  8.05039e+00 -5.21577e+00
80
# CELL(abcABC):   13.17884    17.29009    24.21482    90.00000    66.14000    90.00000  cell{atomic_unit}  Traj: positions{atomic_unit} Step:           2  Bead:       0 
       C  1.55734e+01  1.04466e+01  1.81699e+01
       H  1.54189e+01  1.24250e+01  1.77639e+01
       H  1.44166e+01  1.00565e+01  1.97847e+01
       H  1.74417e+01  9.97376e+00  1.88610e+01
       C  1.48978e+01  8.88674e+00  1.59204e+01
       O  1.26872e+01  8.72186e+00  1.53068e+01
       N  1.68635e+01  7.74486e+00  1.46670e+01
       H  1.86022e+01  7.90237e+00  1.54586e+01
       C  1.67187e+01  6.17110e+00  1.25172e+01
       C  1.47138e+01  6.18739e+00  1.07810e+01
       H  1.31446e+01  7.47650e+00  1.10142e+01
       C  1.47471e+01  4.54712e+00  8.70087e+00
       H  1.32002e+01  4.60295e+00  7.36546e+00
       C  1.87694e+01  4.55351e+00  1.21127e+01
       H  2.03364e+01  4.54662e+00  1.34331e+01
       C  1.88062e+01  2.89956e+00  1.00316e+01
       H  2.03832e+01  1.63146e+00  9.78260e+00
       C  1.67767e+01  2.90264e+00  8.35558e+00
       O  1.66725e+01  1.25046e+00  6.31803e+00
       H  1.83703e+01  6.00162e-01  5.86172e+00
       C  1.22027e+01  1.90566e+01  1.49760e+01
       H  1.02095e+01  1.86484e+01  1.43886e+01
       H  1.35739e+01  1.87076e+01  1.34586e+01
       H  1.24443e+01  2.10574e+01  1.54458e+01
       C  1.29572e+01  1.75348e+01  1.72850e+01
       O  1.51778e+01  1.73664e+01  1.79028e+01
       N  1.10026e+01  1.63877e+01  1.85444e+01
       H  9.26282e+00  1.65454e+01  1.77521e+01
       C  1.11464e+01  1.48144e+01  2.06935e+01
       C  9.09563e+00  1.31966e+01  2.10979e+01
       H  7.52858e+00  1.31896e+01  1.97776e+01
       C  9.05881e+00  1.15426e+01  2.31791e+01
       H  7.48157e+00  1.02740e+01  2.34283e+01
       C  1.31513e+01  1.48305e+01  2.24296e+01
       H  1.47205e+01  1.61197e+01  2.21965e+01
       C  1.31180e+01  1.31902e+01  2.45097e+01
       H  1.46650e+01  1.32461e+01  2.58452e+01
       C  1.10883e+01  1.15459e+01  2.48551e+01
       O  1.11919e+01  9.89439e+00  2.68930e+01
       H  9.49473e+00  9.24326e+00  2.73490e+01
       C  7.14230e+00  6.87227e+00  3.94338e+00
       H  8.38439e+00  7.23528e+00  2.32256e+00
       H  7.37819e+00  4.86495e+00  4.37637e+00
       H  5.18946e+00  7.27426e+00  3.34825e+00
       C  8.05256e+00  8.39713e+00  6.21163e+00
       O  1.02846e+01  8.56113e+00  6.83057e+00
       N  6.10924e+00  9.54233e+00  7.47545e+00
       H  4.36643e+00  9.38376e+00  6.68189e+00
       C  6.25016e+00  1.11151e+01  9.62303e+00
       C  4.19931e+00  1.27327e+01  1.00277e+01
       H  2.63236e+00  1.27396e+01  8.70735e+00
       C  4.16265e+00  1.43865e+01  1.21088e+01
       H  2.58597e+00  1.56540e+01  1.23575e+01
       C  8.25496e+00  1.10990e+01  1.13593e+01
       H  9.82408e+00  9.80976e+00  1.11262e+01
       C  8.22158e+00  1.27391e+01  1.34395e+01
       H  9.76851e+00  1.26833e+01  1.47749e+01
       C  6.19195e+00  1.43835e+01  1.37850e+01
       O  6.29617e+00  1.60357e+01  1.58225e+01
       H  4.59832e+00  1.66860e+01  1.62788e+01
       C  1.08251e+01 -1.77338e+00  7.13985e+00
       H  9.53405e+00 -1.41826e+00  8.71412e+00
       H  1.27681e+01 -1.35334e+00  7.74744e+00
       H  1.06948e+01 -3.77962e+00  6.69246e+00
       C  1.00135e+01 -2.47733e-01  4.85533e+00
       O  7.78942e+00 -8.10842e-02  4.23820e+00
       N  1.19648e+01  8.98638e-01  3.59540e+00
       H  1.37059e+01  7.40674e-01  4.38832e+00
       C  1.18221e+01  2.47205e+00  1.44713e+00
       C  1.38729e+01  4.08955e+00  1.04250e+00
       H  1.54398e+01  4.09633e+00  2.36278e+00
       C  1.39098e+01  5.74351e+00 -1.03861e+00
       H  1.54867e+01  7.01165e+00 -1.28756e+00
       C  9.81730e+00  2.45591e+00 -2.88995e-01
       H  8.24819e+00  1.16661e+00 -5.59762e-02
       C  9.85063e+00  4.09606e+00 -2.36925e+00
       H  8.30370e+00  4.04019e+00 -3.70466e+00
       C  1.18802e+01  5.74050e+00 -2.71473e+00
       O  1.17750e+01  7.39345e+00 -4.75182e+00
       H  1.34736e+01  8.04281e+00 -5.20855e+00
80
# CELL(abcABC):   13.17884    17.29009    24.21482    90.00000    66.14000    90.00000  cell{atomic_unit}  Traj: positions{atomic_unit} Step:           3  Bead:       0 
       C  1.55853e+01  1.04401e+01  1.81742e+01
       H  1.54218e+01  1.24359e+01  1.77571e+01
       H  1.44015e+01  1.00499e+01  1.97879e+01
       H  1.74574e+01  9.97474e+00  1.88583e+01
       C  1.48929e+01  8.88990e+00  1.59111e+01
       O  1.26774e+01  8.72030e+00  1.53066e+01
       N  1.68635e+01  7.74465e+00  1.46703e+01
       H  1.86055e+01  7.89887e+00  1.54644e+01
       C  1.67199e+01  6.17147e+00  1.25191e+01
       C  1.47134e+01  6.18391e+00  1.07825e+01
       H  1.31447e+01  7.47682e+00  1.10144e+01
       C  1.47466e+01  4.54879e+00  8.70311e+00
       H  1.31996e+01  4.60041e+00  7.36398e+00
       C  1.87712e+01  4.55293e+00  1.21082e+01
       H  2.03364e+01  4.54656e+00  1.34327e+01
       C  1.88062e+01  2.90300e+00  1.00338e+01
       H  2.03833e+01  1.62974e+00  9.78121e+00
       C  1.67749e+01  2.89970e+00  8.34981e+00
       O  1.66674e+01  1.25396e+00  6.31970e+00
       H  1.83732e+01  6.06814e-01  5.86808e+00
       C  1.22004e+01  1.90554e+01  1.49835e+01
       H  1.02267e+01  1.86522e+01  1.43903e+01
       H  1.35638e+01  1.87021e+01  1.34604e+01
       H  1.24365e+01  2.10550e+01  1.54474e+01
       C  1.29585e+01  1.75406e+01  1.72874e+01
       O  1.51798e+01  1.73679e+01  1.78983e+01
       N  1.10013e+01  1.63871e+01  1.85414e+01
       H  9.25995e+00  1.65416e+01  1.77466e+01
       C  1.11456e+01  1.48149e+01  2.06920e+01
       C  9.09378e+00  1.31960e+01  2.11024e+01
       H  7.52842e+00  1.31895e+01  1.97779e+01
       C  9.05863e+00  1.15460e+01  2.31769e+01
       H  7.48133e+00  1.02721e+01  2.34298e+01
       C  1.31517e+01  1.48271e+01  2.24281e+01
       H  1.47204e+01  1.61200e+01  2.21962e+01
       C  1.31185e+01  1.31919e+01  2.45075e+01
       H  1.46656e+01  1.32435e+01  2.58466e+01
       C  1.10900e+01  1.15431e+01  2.48609e+01
       O  1.11970e+01  9.89830e+00  2.68916e+01
       H  9.49167e+00  9.24985e+00  2.73427e+01
       C  7.15282e+00  6.87089e+00  3.94437e+00
       H  8.38321e+00  7.23997e+00  2.32491e+00
       H  7.37280e+00  4.86659e+00  4.37870e+00
       H  5.19660e+00  7.27409e+00  3.35545e+00
       C  8.04771e+00  8.39259e+00  6.21580e+00
       O  1.02797e+01  8.55628e+00  6.81951e+00
       N  6.10676e+00  9.54547e+00  7.47485e+00
       H  4.36472e+00  9.38777e+00  6.67722e+00
       C  6.25032e+00  1.11151e+01  9.62189e+00
       C  4.19750e+00  1.27332e+01  1.00321e+01
       H  2.63230e+00  1.27397e+01  8.70773e+00
       C  4.16276e+00  1.43829e+01  1.21066e+01
       H  2.58589e+00  1.56555e+01  1.23588e+01
       C  8.25539e+00  1.11025e+01  1.13576e+01
       H  9.82399e+00  9.80944e+00  1.11259e+01
       C  8.22211e+00  1.27375e+01  1.34373e+01
       H  9.76911e+00  1.26859e+01  1.47764e+01
       C  6.19370e+00  1.43864e+01  1.37908e+01
       O  6.30126e+00  1.60322e+01  1.58208e+01
       H  4.59554e+00  1.66793e+01  1.62724e+01
       C  1.08249e+01 -1.77329e+00  7.13659e+00
       H  9.53586e+00 -1.41481e+00  8.71260e+00
       H  1.27639e+01 -1.35173e+00  7.74472e+00
       H  1.06963e+01 -3.77982e+00  6.68940e+00
       C  1.00143e+01 -2.52799e-01  4.85079e+00
       O  7.78911e+00 -8.37485e-02  4.24478e+00
       N  1.19664e+01  9.00260e-01  3.59731e+00
       H  1.37082e+01  7.44550e-01  4.39346e+00
       C  1.18223e+01  2.47196e+00  1.44862e+00
       C  1.38747e+01  4.09008e+00  1.03800e+00
       H  1.54398e+01  4.09629e+00  2.36237e+00
       C  1.39098e+01  5.74003e+00 -1.03650e+00
       H  1.54868e+01  7.01326e+00 -1.28886e+00
       C  9.81680e+00  2.45953e+00 -2.87298e-01
       H  8.24827e+00  1.16630e+00 -5.56751e-02
       C  9.85008e+00  4.09441e+00 -2.36700e+00
       H  8.30308e+00  4.04275e+00 -3.70613e+00
       C  1.18784e+01  5.74343e+00 -2.72061e+00
       O  1.17698e+01  7.39036e+00 -4.75000e+00
       H  1.34760e+01  8.03606e+00 -5.20216e+00
80
# CELL(abcABC):   13.17884    17.29009    24.21482    90.00000    66.14000    90.00000  cell{atomic_unit}  Traj: positions{atomic_unit} Step:           4  Bead:       0 
       C  1.56172e+01  1.04270e+01  1.81882e+01
       H  1.54358e+01  1.24647e+01  1.77342e+01
       H  1.43493e+01  1.00250e+01  1.97924e+01
       H  1.75214e+01  9.97750e+00  1.88482e+01
       C  1.48729e+01  8.90582e+00  1.58818e+01
       O  1.26453e+01  8.71472e+00  1.53071e+01
       N  1.68654e+01  7.74116e+00  1.46799e+01
       H  1.86144e+01  7.88476e+00  1.54877e+01
       C  1.67251e+01  6.16988e+00  1.25236e+01
       C  1.47111e+01  6.17514e+00  1.07928e+01
       H  1.31461e+01  7.47652e+00  1.10153e+01
       C  1.47442e+01  4.54870e+00  8.70431e+00
       H  1.31981e+01  4.59108e+00  7.36017e+00
       C  1.87781e+01  4.55760e+00  1.20996e+01
       H  2.03364e+01  4.54577e+00  1.34296e+01
       C  1.88058e+01  2.90655e+00  1.00288e+01
       H  2.03817e+01  1.62543e+00  9.77700e+00
       C  1.67688e+01  2.90037e+00  8.34314e+00
       O  1.66552e+01  1.26016e+00  6.31847e+00
       H  1.83775e+01  6.35947e-01  5.89499e+00
       C  1.22025e+01  1.90546e+01  1.50103e+01
       H  1.02832e+01  1.86641e+01  1.43953e+01
       H  1.35236e+01  1.86801e+01  1.34688e+01
       H  1.24055e+01  2.10475e+01  1.54546e+01
       C  1.29623e+01  1.75603e+01  1.73012e+01
       O  1.51876e+01  1.73740e+01  1.78803e+01
       N  1.09962e+01  1.63847e+01  1.85293e+01
       H  9.25055e+00  1.65258e+01  1.77250e+01
       C  1.11413e+01  1.48133e+01  2.06889e+01
       C  9.08712e+00  1.32008e+01  2.11112e+01
       H  7.52826e+00  1.31883e+01  1.97810e+01
       C  9.05844e+00  1.15492e+01  2.31820e+01
       H  7.48259e+00  1.02669e+01  2.34345e+01
       C  1.31546e+01  1.48188e+01  2.24177e+01
       H  1.47190e+01  1.61198e+01  2.21949e+01
       C  1.31208e+01  1.31919e+01  2.45063e+01
       H  1.46670e+01  1.32342e+01  2.58504e+01
       C  1.10957e+01  1.15441e+01  2.48677e+01
       O  1.12084e+01  9.90586e+00  2.68940e+01
       H  9.48667e+00  9.27887e+00  2.73157e+01
       C  7.18086e+00  6.86806e+00  3.95145e+00
       H  8.38320e+00  7.25967e+00  2.33092e+00
       H  7.35322e+00  4.86980e+00  4.38856e+00
       H  5.22778e+00  7.27304e+00  3.38473e+00
       C  8.03031e+00  8.37256e+00  6.22846e+00
       O  1.02650e+01  8.53873e+00  6.77896e+00
       N  6.09494e+00  9.55611e+00  7.47038e+00
       H  4.35839e+00  9.40494e+00  6.65905e+00
       C  6.24799e+00  1.11203e+01  9.62140e+00
       C  4.19175e+00  1.27281e+01  1.00408e+01
       H  2.63244e+00  1.27404e+01  8.71082e+00
       C  4.16347e+00  1.43788e+01  1.21113e+01
       H  2.58779e+00  1.56589e+01  1.23625e+01
       C  8.25940e+00  1.11113e+01  1.13473e+01
       H  9.82249e+00  9.80962e+00  1.11244e+01
       C  8.22447e+00  1.27376e+01  1.34360e+01
       H  9.77051e+00  1.26952e+01  1.47802e+01
       C  6.19980e+00  1.43854e+01  1.37979e+01
       O  6.31360e+00  1.60263e+01  1.58219e+01
       H  4.59128e+00  1.66501e+01  1.62456e+01
       C  1.08229e+01 -1.77426e+00  7.12394e+00
       H  9.54314e+00 -1.40085e+00  8.70539e+00
       H  1.27493e+01 -1.34470e+00  7.73383e+00
       H  1.07023e+01 -3.78074e+00  6.67723e+00
       C  1.00177e+01 -2.73128e-01  4.83451e+00
       O  7.78702e+00 -9.38670e-02  4.26983e+00
       N  1.19737e+01  9.06264e-01  3.60530e+00
       H  1.37159e+01  7.60745e-01  4.41371e+00
       C  1.18254e+01  2.47570e+00  1.45113e+00
       C  1.38806e+01  4.08521e+00  1.02909e+00
       H  1.54393e+01  4.09668e+00  2.35910e+00
       C  1.39092e+01  5.73622e+00 -1.04166e+00
       H  1.54848e+01  7.01705e+00 -1.29273e+00
       C  9.81311e+00  2.46864e+00 -2.76605e-01
       H  8.24974e+00  1.16653e+00 -5.43336e-02
       C  9.84759e+00  4.09457e+00 -2.36573e+00
       H  8.30158e+00  4.05214e+00 -3.70990e+00
       C  1.18721e+01  5.74282e+00 -2.72775e+00
       O  1.17560e+01  7.38535e+00 -4.75013e+00
       H  1.34792e+01  8.00668e+00 -5.17544e+00
80
# CELL(abcABC):   13.17884    17.29009    24.21482    90.00000    66.14000    90.00000  cell{atomic_unit}  Traj: positions{atomic_unit} Step:           5  Bead:       0 
       C  1.56235e+01  1.04292e+01  1.81933e+01
       H  1.54461e+01  1.24648e+01  1.77269e+01
       H  1.43317e+01  1.00142e+01  1.97850e+01
       H  1.75491e+01  9.97979e+00  1.88406e+01
       C  1.48673e+01  8.91726e+00  1.58760e+01
       O  1.26354e+01  8.71262e+00  1.53078e+01
       N  1.68646e+01  7.73787e+00  1.46825e+01
       H  1.86142e+01  7.87665e+00  1.55001e+01
       C  1.67273e+01  6.16896e+00  1.25258e+01
       C  1.47101e+01  6.17117e+00  1.07971e+01
       H  1.31472e+01  7.47555e+00  1.10166e+01
       C  1.47417e+01  4.54800e+00  8.70487e+00
       H  1.31973e+01  4.58641e+00  7.35895e+00
       C  1.87812e+01  4.56026e+00  1.20962e+01
       H  2.03374e+01  4.54526e+00  1.34276e+01
       C  1.88055e+01  2.90671e+00  1.00232e+01
       H  2.03797e+01  1.62388e+00  9.77454e+00
       C  1.67658e+01  2.90328e+00  8.34366e+00
       O  1.66517e+01  1.26340e+00  6.31803e+00
       H  1.83786e+01  6.51977e-01  5.90928e+00
       C  1.22093e+01  1.90575e+01  1.50226e+01
       H  1.03004e+01  1.86665e+01  1.43969e+01
       H  1.35056e+01  1.86674e+01  1.34726e+01
       H  1.23899e+01  2.10482e+01  1.54603e+01
       C  1.29642e+01  1.75678e+01  1.73110e+01
       O  1.51912e+01  1.73772e+01  1.78718e+01
       N  1.09933e+01  1.63817e+01  1.85255e+01
       H  9.24822e+00  1.65166e+01  1.77130e+01
       C  1.11392e+01  1.48134e+01  2.06854e+01
       C  9.08415e+00  1.32033e+01  2.11149e+01
       H  7.52730e+00  1.31877e+01  1.97831e+01
       C  9.05858e+00  1.15493e+01  2.31877e+01
       H  7.48444e+00  1.02650e+01  2.34372e+01
       C  1.31560e+01  1.48150e+01  2.24135e+01
       H  1.47181e+01  1.61191e+01  2.21933e+01
       C  1.31233e+01  1.31914e+01  2.45057e+01
       H  1.46677e+01  1.32296e+01  2.58516e+01
       C  1.10984e+01  1.15471e+01  2.48673e+01
       O  1.12112e+01  9.90976e+00  2.68952e+01
       H  9.48518e+00  9.29482e+00  2.73012e+01
       C  7.18695e+00  6.86713e+00  3.95665e+00
       H  8.38659e+00  7.27110e+00  2.33309e+00
       H  7.34455e+00  4.86807e+00  4.39438e+00
       H  5.24239e+00  7.27327e+00  3.39989e+00
       C  8.02458e+00  8.36120e+00  6.23262e+00
       O  1.02605e+01  8.53113e+00  6.76116e+00
       N  6.08886e+00  9.56077e+00  7.46792e+00
       H  4.35426e+00  9.41585e+00  6.64911e+00
       C  6.24585e+00  1.11230e+01  9.61993e+00
       C  4.18900e+00  1.27262e+01  1.00452e+01
       H  2.63177e+00  1.27407e+01  8.71296e+00
       C  4.16398e+00  1.43784e+01  1.21171e+01
       H  2.58983e+00  1.56601e+01  1.23647e+01
       C  8.26195e+00  1.11156e+01  1.13434e+01
       H  9.82177e+00  9.81007e+00  1.11222e+01
       C  8.22734e+00  1.27382e+01  1.34356e+01
       H  9.77113e+00  1.26999e+01  1.47814e+01
       C  6.20272e+00  1.43824e+01  1.37976e+01
       O  6.31748e+00  1.60232e+01  1.58222e+01
       H  4.59037e+00  1.66340e+01  1.62314e+01
       C  1.08220e+01 -1.77620e+00  7.11790e+00
       H  9.54678e+00 -1.39309e+00  8.69999e+00
       H  1.27438e+01 -1.34014e+00  7.72765e+00
       H  1.07056e+01 -3.78198e+00  6.67067e+00
       C  1.00189e+01 -2.83699e-01  4.82786e+00
       O  7.78634e+00 -9.87219e-02  4.28144e+00
       N  1.19773e+01  9.09997e-01  3.60807e+00
       H  1.37184e+01  7.70539e-01  4.42473e+00
       C  1.18272e+01  2.47727e+00  1.45363e+00
       C  1.38833e+01  4.08295e+00  1.02505e+00
       H  1.54399e+01  4.09692e+00  2.35694e+00
       C  1.39087e+01  5.73587e+00 -1.04752e+00
       H  1.54825e+01  7.01811e+00 -1.29490e+00
       C  9.81103e+00  2.47292e+00 -2.72439e-01
       H  8.25055e+00  1.16718e+00 -5.24998e-02
       C  9.84484e+00  4.09531e+00 -2.36522e+00
       H  8.30085e+00  4.05687e+00 -3.71110e+00
       C  1.18690e+01  5.73982e+00 -2.72726e+00
       O  1.17511e+01  7.38264e+00 -4.74965e+00
       H  1.34792e+01  7.99041e+00 -5.16156e+00
80
# CELL(abcABC):   13.17884    17.29009    24.21482    90.00000    66.14000    90.00000  cell{atomic_unit}  Traj: positions{atomic_unit} Step:           6  Bead:       0 
       C  1.56310e+01  1.04345e+01  1.81980e+01
       H  1.54633e+01  1.24529e+01  1.77215e+01
       H  1.43179e+01  1.00022e+01  1.97644e+01
       H  1.75732e+01  9.98603e+00  1.88253e+01
       C  1.48623e+01  8.93395e+00  1.58748e+01
       O  1.26336e+01  8.71177e+00  1.53110e+01
       N  1.68617e+01  7.73472e+00  1.46876e+01
       H  1.86069e+01  7.86375e+00  1.55169e+01
       C  1.67285e+01  6.16654e+00  1.25270e+01
       C  1.47092e+01  6.16709e+00  1.08023e+01
       H  1.31491e+01  7.47298e+00  1.10195e+01
       C  1.47371e+01  4.54631e+00  8.70632e+00
       H  1.31958e+01  4.58021e+00  7.35811e+00
       C  1.87851e+01  4.56303e+00  1.20917e+01
       H  2.03404e+01  4.54443e+00  1.34241e+01
       C  1.88052e+01  2.90727e+00  1.00147e+01
       H  2.03759e+01  1.62195e+00  9.77007e+00
       C  1.67610e+01  2.90855e+00  8.34647e+00
       O  1.66485e+01  1.27007e+00  6.31972e+00
       H  1.83805e+01  6.74746e-01  5.92902e+00
       C  1.22173e+01  1.90636e+01  1.50378e+01
       H  1.03124e+01  1.86656e+01  1.43994e+01
       H  1.34868e+01  1.86479e+01  1.34759e+01
       H  1.23696e+01  2.10565e+01  1.54707e+01
       C  1.29651e+01  1.75757e+01  1.73257e+01
       O  1.51974e+01  1.73806e+01  1.78631e+01
       N  1.09904e+01  1.63770e+01  1.85213e+01
       H  9.24859e+00  1.65023e+01  1.76954e+01
       C  1.11366e+01  1.48119e+01  2.06821e+01
       C  9.08077e+00  1.32063e+01  2.11195e+01
       H  7.52472e+00  1.31867e+01  1.97870e+01
       C  9.05888e+00  1.15497e+01  2.31965e+01
       H  7.48818e+00  1.02627e+01  2.34419e+01
       C  1.31573e+01  1.48116e+01  2.24075e+01
       H  1.47168e+01  1.61172e+01  2.21895e+01
       C  1.31279e+01  1.31899e+01  2.45042e+01
       H  1.46690e+01  1.32234e+01  2.58525e+01
       C  1.11028e+01  1.15527e+01  2.48649e+01
       O  1.12130e+01  9.91742e+00  2.68949e+01
       H  9.48225e+00  9.31734e+00  2.72810e+01
       C  7.19191e+00  6.86431e+00  3.96328e+00
       H  8.39319e+00  7.28776e+00  2.33807e+00
       H  7.33414e+00  4.86209e+00  4.40305e+00
       H  5.25586e+00  7.27568e+00  3.41985e+00
       C  8.01812e+00  8.34635e+00  6.23735e+00
       O  1.02589e+01  8.52244e+00  6.74096e+00
       N  6.08207e+00  9.56464e+00  7.46251e+00
       H  4.34785e+00  9.43406e+00  6.63478e+00
       C  6.24300e+00  1.11275e+01  9.61844e+00
       C  4.18528e+00  1.27252e+01  1.00513e+01
       H  2.62982e+00  1.27414e+01  8.71713e+00
       C  4.16452e+00  1.43781e+01  1.21265e+01
       H  2.59363e+00  1.56615e+01  1.23687e+01
       C  8.26505e+00  1.11202e+01  1.13382e+01
       H  9.82095e+00  9.81137e+00  1.11175e+01
       C  8.23277e+00  1.27401e+01  1.34347e+01
       H  9.77262e+00  1.27062e+01  1.47825e+01
       C  6.20771e+00  1.43770e+01  1.37952e+01
       O  6.32126e+00  1.60171e+01  1.58201e+01
       H  4.58890e+00  1.66110e+01  1.62120e+01
       C  1.08219e+01 -1.78027e+00  7.11007e+00
       H  9.55127e+00 -1.38176e+00  8.69038e+00
       H  1.27391e+01 -1.33272e+00  7.71811e+00
       H  1.07102e+01 -3.78534e+00  6.66130e+00
       C  1.00220e+01 -2.97136e-01  4.82030e+00
       O  7.78495e+00 -1.04866e-01  4.29503e+00
       N  1.19808e+01  9.13917e-01  3.61263e+00
       H  1.37197e+01  7.86436e-01  4.44051e+00
       C  1.18292e+01  2.48057e+00  1.45587e+00
       C  1.38866e+01  4.08085e+00  1.01978e+00
       H  1.54421e+01  4.09740e+00  2.35291e+00
       C  1.39078e+01  5.73515e+00 -1.05657e+00
       H  1.54782e+01  7.01909e+00 -1.29884e+00
       C  9.80859e+00  2.47727e+00 -2.66834e-01
       H  8.25164e+00  1.16899e+00 -4.83449e-02
       C  9.83960e+00  4.09710e+00 -2.36391e+00
       H  8.29926e+00  4.06320e+00 -3.71206e+00
       C  1.18637e+01  5.73420e+00 -2.72430e+00
       O  1.17456e+01  7.37677e+00 -4.74632e+00
       H  1.34790e+01  7.96704e+00 -5.14286e+00
80
# CELL(abcABC):   13.17884    17.29009    24.21482    90.00000    66.14000    90.00000  cell{atomic_unit}  Traj: positions{atomic_unit} Step:           7  Bead:       0 
       C  1.56368e+01  1.04366e+01  1.81966e+01
       H  1.54815e+01  1.24354e+01  1.77208e+01
       H  1.43154e+01  9.99438e+00  1.97376e+01
       H  1.75817e+01  9.99449e+00  1.88072e+01
       C  1.48696e+01  8.94828e+00  1.58801e+01
       O  1.26370e+01  8.71340e+00  1.53153e+01
       N  1.68547e+01  7.73283e+00  1.46929e+01
       H  1.85942e+01  7.85003e+00  1.55332e+01
       C  1.67282e+01  6.16462e+00  1.25286e+01
       C  1.47081e+01  6.16434e+00  1.08052e+01
       H  1.31508e+01  7.46965e+00  1.10238e+01
       C  1.47315e+01  4.54469e+00  8.70917e+00
       H  1.31935e+01  4.57486e+00  7.35826e+00
       C  1.87880e+01  4.56424e+00  1.20876e+01
       H  2.03446e+01  4.54358e+00  1.34197e+01
       C  1.88049e+01  2.90919e+00  1.00078e+01
       H  2.03715e+01  1.62020e+00  9.76435e+00
       C  1.67562e+01  2.91385e+00  8.35038e+00
       O  1.66471e+01  1.27886e+00  6.32375e+00
       H  1.83834e+01  6.96166e-01  5.94696e+00
       C  1.22197e+01  1.90709e+01  1.50487e+01
       H  1.03127e+01  1.86606e+01  1.44036e+01
       H  1.34757e+01  1.86288e+01  1.34783e+01
       H  1.23527e+01  2.10708e+01  1.54827e+01
       C  1.29672e+01  1.75818e+01  1.73384e+01
       O  1.52020e+01  1.73823e+01  1.78590e+01
       N  1.09890e+01  1.63716e+01  1.85196e+01
       H  9.25278e+00  1.64871e+01  1.76781e+01
       C  1.11346e+01  1.48094e+01  2.06800e+01
       C  9.07791e+00  1.32074e+01  2.11236e+01
       H  7.52108e+00  1.31857e+01  1.97918e+01
       C  9.05936e+00  1.15517e+01  2.32035e+01
       H  7.49273e+00  1.02607e+01  2.34479e+01
       C  1.31579e+01  1.48094e+01  2.24031e+01
       H  1.47158e+01  1.61148e+01  2.21841e+01
       C  1.31334e+01  1.31887e+01  2.45010e+01