80
# CELL(abcABC):   13.17884    17.29009    24.21482    90.00000    66.14000    90.00000  cell{atomic_unit}  Traj: positions{atomic_unit} Step:           0  Bead:       0 
       C  1.57303e+01  1.04074e+01  1.82169e+01
       H  1.53980e+01  1.24288e+01  1.77673e+01
       H  1.44248e+01  1.00684e+01  1.97876e+01
       H  1.72898e+01  1.00007e+01  1.88207e+01
       C  1.49368e+01  8.88275e+00  1.59441e+01
       O  1.26659e+01  8.71622e+00  1.52864e+01
       N  1.68419e+01  7.75181e+00  1.46623e+01
       H  1.86033e+01  7.90960e+00  1.54512e+01
       C  1.67150e+01  6.17137e+00  1.25122e+01
       C  1.47182e+01  6.19050e+00  1.07744e+01
       H  1.31433e+01  7.47652e+00  1.10145e+01
       C  1.47518e+01  4.55159e+00  8.71106e+00
       H  1.31976e+01  4.60725e+00  7.36397e+00
       C  1.87668e+01  4.54216e+00  1.21079e+01
       H  2.03387e+01  4.54759e+00  1.34362e+01
       C  1.88023e+01  2.91095e+00  1.00461e+01
       H  2.03875e+01  1.62963e+00  9.78267e+00
       C  1.67762e+01  2.88836e+00  8.34049e+00
       O  1.66752e+01  1.26054e+00  6.33403e+00
       H  1.83743e+01  5.82444e-01  5.84545e+00
       C  1.21347e+01  1.90505e+01  1.49937e+01
       H  1.01972e+01  1.86438e+01  1.43899e+01
       H  1.36291e+01  1.87116e+01  1.34230e+01
       H  1.24670e+01  2.10720e+01  1.54433e+01
       C  1.29282e+01  1.75259e+01  1.72665e+01
       O  1.51991e+01  1.73595e+01  1.79242e+01
       N  1.10232e+01  1.63950e+01  1.85484e+01
       H  9.26178e+00  1.65527e+01  1.77595e+01
       C  1.11500e+01  1.48145e+01  2.06984e+01
       C  9.09830e+00  1.31853e+01  2.11027e+01
       H  7.52637e+00  1.31907e+01  1.97745e+01
       C  9.06279e+00  1.15541e+01  2.31646e+01
       H  7.47758e+00  1.02728e+01  2.34280e+01
       C  1.31469e+01  1.48336e+01  2.24362e+01
       H  1.47218e+01  1.61197e+01  2.21961e+01
       C  1.31134e+01  1.31947e+01  2.44996e+01
       H  1.46676e+01  1.32504e+01  2.58466e+01
       C  1.10890e+01  1.15315e+01  2.48702e+01
       O  1.11900e+01  9.90362e+00  2.68766e+01
       H  9.49090e+00  9.22557e+00  2.73652e+01
       C  7.23839e+00  6.87885e+00  3.92354e+00
       H  8.35487e+00  7.21783e+00  2.35286e+00
       H  7.38171e+00  4.85740e+00  4.37312e+00
       H  5.11194e+00  7.28549e+00  3.31974e+00
       C  8.03188e+00  8.40344e+00  6.19637e+00
       O  1.03027e+01  8.56999e+00  6.85400e+00
       N  6.12681e+00  9.53437e+00  7.47818e+00
       H  4.36540e+00  9.37654e+00  6.68934e+00
       C  6.25363e+00  1.11148e+01  9.62822e+00
       C  4.20190e+00  1.27441e+01  1.00325e+01
       H  2.62999e+00  1.27387e+01  8.70420e+00
       C  4.16636e+00  1.43753e+01  1.20943e+01
       H  2.58119e+00  1.56566e+01  1.23578e+01
       C  8.25049e+00  1.10957e+01  1.13660e+01
       H  9.82542e+00  9.80974e+00  1.11259e+01
       C  8.21693e+00  1.27347e+01  1.34294e+01
       H  9.77113e+00  1.26790e+01  1.47764e+01
       C  6.19251e+00  1.43979e+01  1.38000e+01
       O  6.29351e+00  1.60257e+01  1.58065e+01
       H  4.59440e+00  1.67037e+01  1.62951e+01
       C  1.08340e+01 -1.76429e+00  7.14673e+00
       H  9.52854e+00 -1.42529e+00  8.71740e+00
       H  1.27715e+01 -1.35762e+00  7.75051e+00
       H  1.06907e+01 -3.78575e+00  6.69718e+00
       C  1.00405e+01 -2.39748e-01  4.87388e+00
       O  7.76961e+00 -7.32372e-02  4.21624e+00
       N  1.19455e+01  8.91209e-01  3.59205e+00
       H  1.37069e+01  7.33400e-01  4.38088e+00
       C  1.18187e+01  2.47169e+00  1.44202e+00
       C  1.38704e+01  4.10093e+00  1.03771e+00
       H  1.54423e+01  4.09552e+00  2.36601e+00
       C  1.39059e+01  5.73217e+00 -1.02410e+00
       H  1.54911e+01  7.01352e+00 -1.28752e+00
       C  9.82180e+00  2.45260e+00 -2.95737e-01
       H  8.24687e+00  1.16660e+00 -5.56148e-02
       C  9.85531e+00  4.09154e+00 -2.35910e+00
       H  8.30110e+00  4.03589e+00 -3.70615e+00
       C  1.18797e+01  5.75474e+00 -2.72971e+00
       O  1.17787e+01  7.38257e+00 -4.73615e+00
       H  1.34778e+01  8.06060e+00 -5.22480e+00
80
# CELL(abcABC):   13.17884    17.29009    24.21482    90.00000    66.14000    90.00000  cell{atomic_unit}  Traj: positions{atomic_unit} Step:           1  Bead:       0 
       C  1.56398e+01  1.04338e+01  1.81906e+01
       H  1.54092e+01  1.24218e+01  1.77677e+01
       H  1.44253e+01  1.00636e+01  1.97843e+01
       H  1.73702e+01  9.98543e+00  1.88445e+01
       C  1.48852e+01  8.88298e+00  1.59267e+01
       O  1.27047e+01  8.72163e+00  1.53045e+01
       N  1.68635e+01  7.74640e+00  1.46643e+01
       H  1.85993e+01  7.90638e+00  1.54524e+01
       C  1.67143e+01  6.17116e+00  1.25132e+01
       C  1.47165e+01  6.19045e+00  1.07789e+01
       H  1.31440e+01  7.47628e+00  1.10142e+01
       C  1.47492e+01  4.54742e+00  8.70317e+00
       H  1.31994e+01  4.60575e+00  7.36560e+00
       C  1.87685e+01  4.54970e+00  1.21139e+01
       H  2.03371e+01  4.54698e+00  1.34342e+01
       C  1.88042e+01  2.90197e+00  1.00351e+01
       H  2.03848e+01  1.63155e+00  9.78328e+00
       C  1.67773e+01  2.89913e+00  8.35321e+00
       O  1.66755e+01  1.25281e+00  6.32346e+00
       H  1.83706e+01  5.90606e-01  5.85270e+00
       C  1.21706e+01  1.90558e+01  1.49790e+01
       H  1.01987e+01  1.86453e+01  1.43885e+01
       H  1.36015e+01  1.87107e+01  1.34427e+01
       H  1.24568e+01  2.10645e+01  1.54444e+01
       C  1.29790e+01  1.75273e+01  1.72850e+01
       O  1.51604e+01  1.73649e+01  1.79062e+01
       N  1.10017e+01  1.63898e+01  1.85460e+01
       H  9.26571e+00  1.65495e+01  1.77583e+01
       C  1.11508e+01  1.48143e+01  2.06975e+01
       C  9.09660e+00  1.31928e+01  2.10967e+01
       H  7.52796e+00  1.31901e+01  1.97765e+01
       C  9.06087e+00  1.15451e+01  2.31755e+01
       H  7.48015e+00  1.02744e+01  2.34275e+01
       C  1.31486e+01  1.48336e+01  2.24317e+01
       H  1.47211e+01  1.61194e+01  2.21964e+01
       C  1.31159e+01  1.31905e+01  2.45074e+01
       H  1.46657e+01  1.32489e+01  2.58450e+01
       C  1.10878e+01  1.15423e+01  2.48574e+01
       O  1.11893e+01  9.89623e+00  2.68873e+01
       H  9.49457e+00  9.23374e+00  2.73580e+01
       C  7.17488e+00  6.87454e+00  3.93230e+00
       H  8.37262e+00  7.22661e+00  2.33483e+00
       H  7.38174e+00  4.86102e+00  4.37446e+00
       H  5.15467e+00  7.27879e+00  3.33356e+00
       C  8.08620e+00  8.40278e+00  6.21318e+00
       O  1.02639e+01  8.56440e+00  6.83604e+00
       N  6.10532e+00  9.53939e+00  7.47566e+00
       H  4.36935e+00  9.37976e+00  6.68809e+00
       C  6.25448e+00  1.11151e+01  9.62727e+00
       C  4.20022e+00  1.27365e+01  1.00265e+01
       H  2.63164e+00  1.27393e+01  8.70624e+00
       C  4.16448e+00  1.43842e+01  1.21053e+01
       H  2.58416e+00  1.56543e+01  1.23570e+01
       C  8.25220e+00  1.10958e+01  1.13615e+01
       H  9.82465e+00  9.80998e+00  1.11262e+01
       C  8.21946e+00  1.27388e+01  1.34372e+01
       H  9.76929e+00  1.26805e+01  1.47748e+01
       C  6.19140e+00  1.43871e+01  1.37873e+01
       O  6.29317e+00  1.60334e+01  1.58170e+01
       H  4.59804e+00  1.66956e+01  1.62878e+01
       C  1.08335e+01 -1.77059e+00  7.14624e+00
       H  9.53067e+00 -1.42211e+00  8.71583e+00
       H  1.27701e+01 -1.35606e+00  7.74963e+00
       H  1.06923e+01 -3.78214e+00  6.69528e+00
       C  9.98790e+00 -2.41150e-01  4.85597e+00
       O  7.80838e+00 -7.88431e-02  4.23416e+00
       N  1.19670e+01  8.96334e-01  3.59433e+00
       H  1.37030e+01  7.36628e-01  4.38214e+00
       C  1.18178e+01  2.47197e+00  1.44297e+00
       C  1.38720e+01  4.09338e+00  1.04369e+00
       H  1.54406e+01  4.09606e+00  2.36393e+00
       C  1.39078e+01  5.74113e+00 -1.03506e+00
       H  1.54883e+01  7.01161e+00 -1.28691e+00
       C  9.82008e+00  2.45271e+00 -2.91210e-01
       H  8.24763e+00  1.16683e+00 -5.59529e-02
       C  9.85277e+00  4.09573e+00 -2.36696e+00
       H  8.30293e+00  4.03739e+00 -3.70453e+00
       C  1.18808e+01  5.74401e+00 -2.71700e+00
       O  1.17785e+01  7.39062e+00 -4.74657e+00
       H  1.34741e+01  8.05243e+00 -5.21757e+00
80
# CELL(abcABC):   13.17884    17.29009    24.21482    90.00000    66.14000    90.00000  cell{atomic_unit}  Traj: positions{atomic_unit} Step:           2  Bead:       0 
       C  1.55758e+01  1.04461e+01  1.81707e+01
       H  1.54185e+01  1.24250e+01  1.77639e+01
       H  1.44166e+01  1.00567e+01  1.97847e+01
       H  1.74396e+01  9.97409e+00  1.88605e+01
       C  1.48974e+01  8.88660e+00  1.59206e+01
       O  1.26877e+01  8.72188e+00  1.53066e+01
       N  1.68635e+01  7.74491e+00  1.46670e+01
       H  1.86022e+01  7.90249e+00  1.54584e+01
       C  1.67185e+01  6.17110e+00  1.25171e+01
       C  1.47139e+01  6.18748e+00  1.07809e+01
       H  1.31446e+01  7.47649e+00  1.10142e+01
       C  1.47472e+01  4.54713e+00  8.70094e+00
       H  1.32002e+01  4.60303e+00  7.36547e+00
       C  1.87694e+01  4.55339e+00  1.21128e+01
       H  2.03364e+01  4.54664e+00  1.34331e+01
       C  1.88061e+01  2.89964e+00  1.00318e+01
       H  2.03832e+01  1.63146e+00  9.78261e+00
       C  1.67767e+01  2.90253e+00  8.35549e+00
       O  1.66726e+01  1.25055e+00  6.31820e+00
       H  1.83704e+01  5.99864e-01  5.86143e+00
       C  1.22018e+01  1.90566e+01  1.49760e+01
       H  1.02092e+01  1.86483e+01  1.43886e+01
       H  1.35748e+01  1.87077e+01  1.34581e+01
       H  1.24447e+01  2.10576e+01  1.54458e+01
       C  1.29578e+01  1.75345e+01  1.72849e+01
       O  1.51773e+01  1.73664e+01  1.79030e+01
       N  1.10026e+01  1.63878e+01  1.85444e+01
       H  9.26289e+00  1.65456e+01  1.77522e+01
       C  1.11465e+01  1.48144e+01  2.06936e+01
       C  9.09566e+00  1.31965e+01  2.10979e+01
       H  7.52856e+00  1.31896e+01  1.97775e+01
       C  9.05887e+00  1.15427e+01  2.31789e+01
       H  7.48152e+00  1.02740e+01  2.34283e+01
       C  1.31512e+01  1.48306e+01  2.24297e+01
       H  1.47205e+01  1.61196e+01  2.21965e+01
       C  1.31180e+01  1.31903e+01  2.45097e+01
       H  1.46650e+01  1.32461e+01  2.58451e+01
       C  1.10883e+01  1.15458e+01  2.48552e+01
       O  1.11919e+01  9.89446e+00  2.68928e+01
       H  9.49471e+00  9.24296e+00  2.73493e+01
       C  7.14315e+00  6.87248e+00  3.94288e+00
       H  8.38414e+00  7.23500e+00  2.32297e+00
       H  7.37833e+00  4.86479e+00  4.37635e+00
       H  5.18837e+00  7.27435e+00  3.34787e+00
       C  8.05357e+00  8.39728e+00  6.21164e+00
       O  1.02840e+01  8.56121e+00  6.83080e+00
       N  6.10915e+00  9.54224e+00  7.47544e+00
       H  4.36651e+00  9.38365e+00  6.68207e+00
       C  6.25027e+00  1.11151e+01  9.62315e+00
       C  4.19934e+00  1.27329e+01  1.00276e+01
       H  2.63234e+00  1.27396e+01  8.70732e+00
       C  4.16270e+00  1.43865e+01  1.21086e+01
       H  2.58591e+00  1.56540e+01  1.23575e+01
       C  8.25488e+00  1.10989e+01  1.13594e+01
       H  9.82410e+00  9.80977e+00  1.11262e+01
       C  8.22152e+00  1.27391e+01  1.34395e+01
       H  9.76854e+00  1.26832e+01  1.47749e+01
       C  6.19194e+00  1.43836e+01  1.37850e+01
       O  6.29609e+00  1.60356e+01  1.58223e+01
       H  4.59830e+00  1.66863e+01  1.62791e+01
       C  1.08254e+01 -1.77329e+00  7.14005e+00
       H  9.53395e+00 -1.41838e+00  8.71417e+00
       H  1.27681e+01 -1.35342e+00  7.74750e+00
       H  1.06947e+01 -3.77970e+00  6.69254e+00
       C  1.00127e+01 -2.47517e-01  4.85540e+00
       O  7.78995e+00 -8.10408e-02  4.23800e+00
       N  1.19649e+01  8.98573e-01  3.59539e+00
       H  1.37058e+01  7.40554e-01  4.38814e+00
       C  1.18219e+01  2.47205e+00  1.44701e+00
       C  1.38729e+01  4.08967e+00  1.04253e+00
       H  1.54398e+01  4.09632e+00  2.36282e+00
       C  1.39097e+01  5.74343e+00 -1.03849e+00
       H  1.54868e+01  7.01165e+00 -1.28754e+00
       C  9.81738e+00  2.45582e+00 -2.89062e-01
       H  8.24817e+00  1.16662e+00 -5.59740e-02
       C  9.85070e+00  4.09604e+00 -2.36917e+00
       H  8.30368e+00  4.04011e+00 -3.70466e+00
       C  1.18802e+01  5.74061e+00 -2.71481e+00
       O  1.17751e+01  7.39335e+00 -4.75165e+00
       H  1.34737e+01  8.04311e+00 -5.20883e+00
80
# CELL(abcABC):   13.17884    17.29009    24.21482    90.00000    66.14000    90.00000  cell{atomic_unit}  Traj: positions{atomic_unit} Step:           3  Bead:       0 
       C  1.55880e+01  1.04313e+01  1.81768e+01
       H  1.54313e+01  1.24605e+01  1.77409e+01
       H  1.43656e+01  1.00329e+01  1.97945e+01
       H  1.75175e+01  9.97267e+00  1.88584e+01
       C  1.48772e+01  8.89780e+00  1.58865e+01
       O  1.26569e+01  8.71760e+00  1.53090e+01
       N  1.68665e+01  7.74314e+00  1.46785e+01
       H  1.86128e+01  7.88973e+00  1.54791e+01
       C  1.67234e+01  6.17227e+00  1.25245e+01
       C  1.47118e+01  6.17540e+00  1.07869e+01
       H  1.31451e+01  7.47754e+00  1.10149e+01
       C  1.47447e+01  4.55196e+00  8.70673e+00
       H  1.31985e+01  4.59390e+00  7.36079e+00
       C  1.87758e+01  4.55332e+00  1.20984e+01
       H  2.03363e+01  4.54627e+00  1.34314e+01
       C  1.88069e+01  2.90916e+00  1.00366e+01
       H  2.03830e+01  1.62606e+00  9.77803e+00
       C  1.67709e+01  2.89512e+00  8.33886e+00
       O  1.66552e+01  1.26044e+00  6.32106e+00
       H  1.83790e+01  6.24821e-01  5.88520e+00
       C  1.22058e+01  1.90535e+01  1.49981e+01
       H  1.02681e+01  1.86616e+01  1.43939e+01
       H  1.35321e+01  1.86890e+01  1.34700e+01
       H  1.24152e+01  2.10471e+01  1.54513e+01
       C  1.29644e+01  1.75554e+01  1.72956e+01
       O  1.51823e+01  1.73723e+01  1.78851e+01
       N  1.09956e+01  1.63844e+01  1.85340e+01
       H  9.25339e+00  1.65317e+01  1.77329e+01
       C  1.11431e+01  1.48159e+01  2.06878e+01
       C  9.08915e+00  1.31965e+01  2.11121e+01
       H  7.52840e+00  1.31889e+01  1.97792e+01
       C  9.05759e+00  1.15519e+01  2.31742e+01
       H  7.48140e+00  1.02678e+01  2.34333e+01
       C  1.31533e+01  1.48188e+01  2.24236e+01
       H  1.47200e+01  1.61207e+01  2.21956e+01
       C  1.31204e+01  1.31951e+01  2.45039e+01
       H  1.46666e+01  1.32370e+01  2.58498e+01
       C  1.10937e+01  1.15387e+01  2.48719e+01
       O  1.12090e+01  9.90586e+00  2.68907e+01
       H  9.48524e+00  9.26771e+00  2.73257e+01
       C  7.16229e+00  6.86668e+00  3.94981e+00
       H  8.38523e+00  7.25340e+00  2.32555e+00
       H  7.35988e+00  4.87169e+00  4.38455e+00
       H  5.22479e+00  7.27194e+00  3.37646e+00
       C  8.03775e+00  8.38113e+00  6.22724e+00
       O  1.02672e+01  8.54385e+00  6.79094e+00
       N  6.09894e+00  9.55385e+00  7.47307e+00
       H  4.36081e+00  9.39809e+00  6.66529e+00
       C  6.25003e+00  1.11151e+01  9.61838e+00
       C  4.19298e+00  1.27326e+01  1.00415e+01
       H  2.63254e+00  1.27399e+01  8.70907e+00
       C  4.16241e+00  1.43764e+01  1.21037e+01
       H  2.58646e+00  1.56585e+01  1.23616e+01
       C  8.25709e+00  1.11112e+01  1.13528e+01
       H  9.82358e+00  9.80871e+00  1.11252e+01
       C  8.22404e+00  1.27343e+01  1.34337e+01
       H  9.77009e+00  1.26924e+01  1.47796e+01
       C  6.19763e+00  1.43907e+01  1.38020e+01
       O  6.31332e+00  1.60259e+01  1.58195e+01
       H  4.58979e+00  1.66613e+01  1.62553e+01
       C  1.08227e+01 -1.77447e+00  7.12793e+00
       H  9.54089e+00 -1.40580e+00  8.70860e+00
       H  1.27539e+01 -1.34736e+00  7.73800e+00
       H  1.07004e+01 -3.77933e+00  6.68166e+00
       C  1.00136e+01 -2.65683e-01  4.83791e+00
       O  7.79020e+00 -9.10384e-02  4.26288e+00
       N  1.19725e+01  9.05089e-01  3.60221e+00
       H  1.37136e+01  7.54564e-01  4.40649e+00
       C  1.18236e+01  2.47180e+00  1.45292e+00
       C  1.38791e+01  4.08956e+00  1.02833e+00
       H  1.54393e+01  4.09634e+00  2.36094e+00
       C  1.39104e+01  5.73376e+00 -1.03385e+00
       H  1.54863e+01  7.01670e+00 -1.29187e+00
       C  9.81492e+00  2.46838e+00 -2.82400e-01
       H  8.24867e+00  1.16557e+00 -5.50374e-02
       C  9.84809e+00  4.09129e+00 -2.36336e+00
       H  8.30206e+00  4.04930e+00 -3.70930e+00
       C  1.18743e+01  5.74799e+00 -2.73185e+00
       O  1.17572e+01  7.38495e+00 -4.74825e+00
       H  1.34809e+01  8.01781e+00 -5.18497e+00
80
# CELL(abcABC):   13.17884    17.29009    24.21482    90.00000    66.14000    90.00000  cell{atomic_unit}  Traj: positions{atomic_unit} Step:           4  Bead:       0 
       C  1.56212e+01  1.04271e+01  1.81912e+01
       H  1.54428e+01  1.24710e+01  1.77264e+01
       H  1.43310e+01  1.00153e+01  1.97914e+01
       H  1.75507e+01  9.97756e+00  1.88453e+01
       C  1.48654e+01  8.91343e+00  1.58727e+01
       O  1.26344e+01  8.71270e+00  1.53079e+01
       N  1.68665e+01  7.73887e+00  1.46828e+01
       H  1.86168e+01  7.87888e+00  1.54973e+01
       C  1.67275e+01  6.16818e+00  1.25244e+01
       C  1.47098e+01  6.17325e+00  1.07986e+01
       H  1.31472e+01  7.47586e+00  1.10157e+01
       C  1.47431e+01  4.54635e+00  8.70204e+00
       H  1.31978e+01  4.58749e+00  7.35936e+00
       C  1.87808e+01  4.56206e+00  1.20994e+01
       H  2.03362e+01  4.54526e+00  1.34276e+01
       C  1.88056e+01  2.90436e+00  1.00220e+01
       H  2.03802e+01  1.62458e+00  9.77572e+00
       C  1.67666e+01  2.90505e+00  8.34614e+00
       O  1.66532e+01  1.25990e+00  6.31508e+00
       H  1.83767e+01  6.48987e-01  5.90672e+00
       C  1.22090e+01  1.90561e+01  1.50203e+01
       H  1.03022e+01  1.86678e+01  1.43967e+01
       H  1.35061e+01  1.86709e+01  1.34732e+01
       H  1.23924e+01  2.10447e+01  1.54579e+01
       C  1.29621e+01  1.75672e+01  1.73081e+01
       O  1.51916e+01  1.73767e+01  1.78727e+01
       N  1.09944e+01  1.63839e+01  1.85243e+01
       H  9.24731e+00  1.65191e+01  1.77160e+01
       C  1.11389e+01  1.48116e+01  2.06884e+01
       C  9.08465e+00  1.32052e+01  2.11116e+01
       H  7.52838e+00  1.31877e+01  1.97829e+01
       C  9.05848e+00  1.15469e+01  2.31888e+01
       H  7.48393e+00  1.02657e+01  2.34360e+01
       C  1.31563e+01  1.48171e+01  2.24120e+01
       H  1.47180e+01  1.61192e+01  2.21944e+01
       C  1.31219e+01  1.31896e+01  2.45085e+01
       H  1.46673e+01  1.32307e+01  2.58513e+01
       C  1.10977e+01  1.15490e+01  2.48647e+01
       O  1.12098e+01  9.90608e+00  2.68980e+01
       H  9.48733e+00  9.29192e+00  2.73039e+01
       C  7.18664e+00  6.86744e+00  3.95619e+00
       H  8.38519e+00  7.26828e+00  2.33168e+00
       H  7.34570e+00  4.87036e+00  4.39271e+00
       H  5.24249e+00  7.27240e+00  3.39723e+00
       C  8.02246e+00  8.36369e+00  6.23244e+00
       O  1.02614e+01  8.53205e+00  6.76320e+00
       N  6.08986e+00  9.55982e+00  7.46785e+00
       H  4.35590e+00  9.41244e+00  6.65161e+00
       C  6.24582e+00  1.11242e+01  9.62240e+00
       C  4.18990e+00  1.27235e+01  1.00414e+01
       H  2.63264e+00  1.27409e+01  8.71267e+00
       C  4.16380e+00  1.43808e+01  1.21181e+01
       H  2.58938e+00  1.56594e+01  1.23636e+01
       C  8.26194e+00  1.11132e+01  1.13417e+01
       H  9.82146e+00  9.81022e+00  1.11237e+01
       C  8.22558e+00  1.27399e+01  1.34382e+01
       H  9.77071e+00  1.26988e+01  1.47810e+01
       C  6.20197e+00  1.43806e+01  1.37951e+01
       O  6.31575e+00  1.60266e+01  1.58252e+01
       H  4.59210e+00  1.66370e+01  1.62340e+01
       C  1.08214e+01 -1.77519e+00  7.11867e+00
       H  9.54624e+00 -1.39502e+00  8.70203e+00
       H  1.27440e+01 -1.34153e+00  7.72932e+00
       H  1.07049e+01 -3.78105e+00  6.67222e+00
       C  1.00205e+01 -2.81595e-01  4.82839e+00
       O  7.78495e+00 -9.78345e-02  4.27985e+00
       N  1.19766e+01  9.08541e-01  3.60868e+00
       H  1.37186e+01  7.67684e-01  4.42206e+00
       C  1.18275e+01  2.47863e+00  1.45117e+00
       C  1.38827e+01  4.08069e+00  1.02858e+00
       H  1.54389e+01  4.09701e+00  2.35716e+00
       C  1.39089e+01  5.73826e+00 -1.04855e+00
       H  1.54831e+01  7.01762e+00 -1.29385e+00
       C  9.81092e+00  2.47061e+00 -2.70863e-01
       H  8.25075e+00  1.16715e+00 -5.37482e-02
       C  9.84642e+00  4.09695e+00 -2.36795e+00
       H  8.30134e+00  4.05576e+00 -3.71069e+00
       C  1.18699e+01  5.73819e+00 -2.72494e+00
       O  1.17530e+01  7.38592e+00 -4.75290e+00
       H  1.34780e+01  7.99360e+00 -5.16389e+00
80
# CELL(abcABC):   13.17884    17.29009    24.21482    90.00000    66.14000    90.00000  cell{atomic_unit}  Traj: positions{atomic_unit} Step:           5  Bead:       0 
       C  1.56377e+01  1.04435e+01  1.82032e+01
       H  1.54642e+01  1.24385e+01  1.77248e+01
       H  1.43243e+01  1.00038e+01  1.97559e+01
       H  1.75578e+01  9.98846e+00  1.88201e+01
       C  1.48684e+01  8.93918e+00  1.58862e+01
       O  1.26336e+01  8.71043e+00  1.53082e+01
       N  1.68589e+01  7.73117e+00  1.46813e+01
       H  1.86045e+01  7.86406e+00  1.55176e+01
       C  1.67285e+01  6.16790e+00  1.25287e+01
       C  1.47099e+01  6.16620e+00  1.07999e+01
       H  1.31492e+01  7.47266e+00  1.10200e+01
       C  1.47362e+01  4.54703e+00  8.70777e+00
       H  1.31959e+01  4.58028e+00  7.35822e+00
       C  1.87845e+01  4.56232e+00  1.20912e+01
       H  2.03416e+01  4.54447e+00  1.34246e+01
       C  1.88045e+01  2.90642e+00  1.00123e+01
       H  2.03754e+01  1.62234e+00  9.77020e+00
       C  1.67616e+01  2.90929e+00  8.34840e+00
       O  1.66508e+01  1.27043e+00  6.32064e+00
       H  1.83794e+01  6.75014e-01  5.92895e+00
       C  1.22201e+01  1.90668e+01  1.50398e+01
       H  1.03028e+01  1.86628e+01  1.43977e+01
       H  1.34912e+01  1.86461e+01  1.34722e+01
       H  1.23702e+01  2.10603e+01  1.54718e+01
       C  1.29701e+01  1.75727e+01  1.73293e+01
       O  1.51934e+01  1.73811e+01  1.78624e+01
       N  1.09892e+01  1.63742e+01  1.85254e+01
       H  9.25001e+00  1.65023e+01  1.76950e+01
       C  1.11376e+01  1.48159e+01  2.06770e+01
       C  9.08079e+00  1.32049e+01  2.11205e+01
       H  7.52384e+00  1.31869e+01  1.97865e+01
       C  9.05972e+00  1.15489e+01  2.31989e+01
       H  7.48872e+00  1.02631e+01  2.34418e+01
       C  1.31569e+01  1.48102e+01  2.24107e+01
       H  1.47168e+01  1.61172e+01  2.21887e+01
       C  1.31291e+01  1.31908e+01  2.45028e+01
       H  1.46689e+01  1.32235e+01  2.58523e+01
       C  1.11019e+01  1.15531e+01  2.48631e+01
       O  1.12103e+01  9.91759e+00  2.68942e+01
       H  9.48357e+00  9.31769e+00  2.72809e+01
       C  7.19205e+00  6.86784e+00  3.96388e+00
       H  8.39390e+00  7.28789e+00  2.33887e+00
       H  7.33495e+00  4.85786e+00  4.40402e+00
       H  5.25133e+00  7.27660e+00  3.41867e+00
       C  8.02599e+00  8.34343e+00  6.23369e+00
       O  1.02572e+01  8.52348e+00  6.74241e+00
       N  6.08024e+00  9.56563e+00  7.46464e+00
       H  4.34689e+00  9.43491e+00  6.63453e+00
       C  6.24231e+00  1.11262e+01  9.61569e+00
       C  4.18537e+00  1.27273e+01  1.00530e+01
       H  2.62904e+00  1.27411e+01  8.71661e+00
       C  4.16547e+00  1.43785e+01  1.21286e+01
       H  2.59404e+00  1.56612e+01  1.23686e+01
       C  8.26554e+00  1.11218e+01  1.13421e+01
       H  9.82114e+00  9.81125e+00  1.11165e+01
       C  8.23425e+00  1.27390e+01  1.34333e+01
       H  9.77228e+00  1.27062e+01  1.47822e+01
       C  6.20666e+00  1.43765e+01  1.37932e+01
       O  6.31926e+00  1.60167e+01  1.58191e+01
       H  4.58999e+00  1.66107e+01  1.62121e+01
       C  1.08227e+01 -1.78065e+00  7.11106e+00
       H  9.55113e+00 -1.38147e+00  8.68924e+00
       H  1.27400e+01 -1.33230e+00  7.71786e+00
       H  1.07101e+01 -3.78606e+00  6.66102e+00
       C  1.00162e+01 -2.98273e-01  4.82238e+00
       O  7.78870e+00 -1.04519e-01  4.29463e+00
       N  1.19820e+01  9.16220e-01  3.60903e+00
       H  1.37189e+01  7.86772e-01  4.44081e+00
       C  1.18290e+01  2.47823e+00  1.45927e+00
       C  1.38864e+01  4.08243e+00  1.01853e+00
       H  1.54430e+01  4.09720e+00  2.35342e+00
       C  1.39068e+01  5.73578e+00 -1.05894e+00
       H  1.54776e+01  7.01848e+00 -1.29857e+00
       C  9.80866e+00  2.47863e+00 -2.70226e-01
       H  8.25153e+00  1.16901e+00 -4.75370e-02
       C  9.83851e+00  4.09634e+00 -2.36258e+00
       H  8.29943e+00  4.06313e+00 -3.71185e+00
       C  1.18645e+01  5.73345e+00 -2.72216e+00
       O  1.17475e+01  7.37612e+00 -4.74511e+00
       H  1.34778e+01  7.96680e+00 -5.14309e+00
80
# CELL(abcABC):   13.17884    17.29009    24.21482    90.00000    66.14000    90.00000  cell{atomic_unit}  Traj: positions{atomic_unit} Step:           6  Bead:       0 
       C  1.56401e+01  1.04433e+01  1.82016e+01
       H  1.54825e+01  1.24197e+01  1.77254e+01
       H  1.43259e+01  9.99787e+00  1.97266e+01
       H  1.75626e+01  9.99756e+00  1.88019e+01
       C  1.48688e+01  8.95097e+00  1.58893e+01
       O  1.26490e+01  8.71390e+00  1.53156e+01
       N  1.68536e+01  7.73372e+00  1.46929e+01
       H  1.85885e+01  7.85009e+00  1.55312e+01
       C  1.67263e+01  6.16382e+00  1.25261e+01
       C  1.47095e+01  6.16443e+00  1.08031e+01
       H  1.31511e+01  7.46894e+00  1.10243e+01
       C  1.47307e+01  4.54565e+00  8.71136e+00
       H  1.31935e+01  4.57524e+00  7.35840e+00
       C  1.87874e+01  4.56170e+00  1.20858e+01
       H  2.03462e+01  4.54366e+00  1.34204e+01
       C  1.88049e+01  2.91062e+00  1.00089e+01
       H  2.03711e+01  1.62023e+00  9.76415e+00
       C  1.67559e+01  2.91232e+00  8.34913e+00
       O  1.66475e+01  1.28167e+00  6.32748e+00
       H  1.83846e+01  6.94495e-01  5.94532e+00
       C  1.22203e+01  1.90723e+01  1.50486e+01
       H  1.03005e+01  1.86570e+01  1.44023e+01
       H  1.34831e+01  1.86277e+01  1.34736e+01
       H  1.23552e+01  2.10776e+01  1.54844e+01
       C  1.29600e+01  1.75782e+01  1.73396e+01
       O  1.52074e+01  1.73814e+01  1.78619e+01
       N  1.09906e+01  1.63713e+01  1.85215e+01
       H  9.25508e+00  1.64874e+01  1.76785e+01
       C  1.11353e+01  1.48102e+01  2.06790e+01
       C  9.07925e+00  1.32056e+01  2.11251e+01
       H  7.51981e+00  1.31859e+01  1.97913e+01
       C  9.05938e+00  1.15529e+01  2.32029e+01
       H  7.49313e+00  1.02609e+01  2.34480e+01
       C  1.31570e+01  1.48100e+01  2.24048e+01
       H  1.47158e+01  1.61143e+01  2.21835e+01
       C  1.31342e+01  1.31894e+01  2.44992e+01
       H  1.46712e+01  1.32185e+01  2.58523e+01
       C  1.11076e+01  1.15567e+01  2.48627e+01
       O  1.12125e+01  9.93000e+00  2.68885e+01
       H  9.47650e+00  9.33662e+00  2.72640e+01
       C  7.19212e+00  6.86032e+00  3.96730e+00
       H  8.40163e+00  7.30307e+00  2.34666e+00
       H  7.32820e+00  4.84966e+00  4.41182e+00
       H  5.25348e+00  7.28181e+00  3.43451e+00
       C  8.01397e+00  8.33441e+00  6.23795e+00
       O  1.02674e+01  8.51872e+00  6.73247e+00
       N  6.08003e+00  9.56397e+00  7.45597e+00
       H  4.34046e+00  9.45494e+00  6.62137e+00
       C  6.24088e+00  1.11308e+01  9.61579e+00
       C  4.18210e+00  1.27299e+01  1.00593e+01
       H  2.62589e+00  1.27420e+01  8.72214e+00
       C  4.16487e+00  1.43759e+01  1.21343e+01
       H  2.59822e+00  1.56629e+01  1.23743e+01
       C  8.26666e+00  1.11237e+01  1.13365e+01
       H  9.82094e+00  9.81323e+00  1.11098e+01
       C  8.24047e+00  1.27412e+01  1.34307e+01
       H  9.77508e+00  1.27114e+01  1.47827e+01
       C  6.21341e+00  1.43730e+01  1.37929e+01
       O  6.32321e+00  1.60063e+01  1.58118e+01
       H  4.58566e+00  1.65910e+01  1.61961e+01
       C  1.08241e+01 -1.78598e+00  7.10449e+00
       H  9.55410e+00 -1.37108e+00  8.67826e+00
       H  1.27399e+01 -1.32440e+00  7.70819e+00
       H  1.07143e+01 -3.79131e+00  6.65281e+00
       C  1.00300e+01 -3.07065e-01  4.81847e+00
       O  7.78076e+00 -1.08638e-01  4.30129e+00
       N  1.19799e+01  9.15877e-01  3.61600e+00
       H  1.37171e+01  8.03905e-01  4.45512e+00
       C  1.18298e+01  2.48339e+00  1.45805e+00
       C  1.38886e+01  4.08333e+00  1.01304e+00
       H  1.54466e+01  4.09788e+00  2.34831e+00
       C  1.39067e+01  5.73180e+00 -1.06337e+00
       H  1.54729e+01  7.01953e+00 -1.30405e+00
       C  9.80757e+00  2.48007e+00 -2.64927e-01
       H  8.25217e+00  1.17173e+00 -4.16741e-02
       C  9.83223e+00  4.09792e+00 -2.35916e+00
       H  8.29673e+00  4.06837e+00 -3.71207e+00
       C  1.18576e+01  5.72971e+00 -2.72104e+00
       O  1.17419e+01  7.36596e+00 -4.73654e+00
       H  1.34797e+01  7.94627e+00 -5.12827e+00
80
# CELL(abcABC):   13.17884    17.29009    24.21482    90.00000    66.14000    90.00000  cell{atomic_unit}  Traj: positions{atomic_unit} Step:           7  Bead:       0 
       C  1.56381e+01  1.04272e+01  1.81850e+01
       H  1.54996e+01  1.24166e+01  1.77260e+01
       H  1.43295e+01  9.99380e+00  1.97044e+01
       H  1.75680e+01  1.00054e+01  1.87875e+01
       C  1.48841e+01  8.95411e+00  1.58875e+01
       O  1.26590e+01  8.72088e+00  1.53253e+01
       N  1.68455e+01  7.73692e+00  1.47047e+01
       H  1.85724e+01  7.83546e+00  1.55456e+01
       C  1.67243e+01  6.16168e+00  1.25272e+01
       C  1.47070e+01  6.16510e+00  1.08060e+01
       H  1.31520e+01  7.46518e+00  1.10298e+01
       C  1.47253e+01  4.54276e+00  8.71356e+00
       H  1.31899e+01  4.57138e+00  7.35999e+00
       C  1.87896e+01  4.56234e+00  1.20844e+01
       H  2.03501e+01  4.54275e+00  1.34140e+01
       C  1.88054e+01  2.91470e+00  1.00067e+01
       H  2.03666e+01  1.61846e+00  9.75676e+00
       C  1.67507e+01  2.91746e+00  8.35341e+00
       O  1.66461e+01  1.29174e+00  6.33246e+00
       H  1.83897e+01  7.12919e-01  5.96009e+00
       C  1.22078e+01  1.90766e+01  1.50495e+01
       H  1.02982e+01  1.86506e+01  1.44116e+01
       H  1.34780e+01  1.86127e+01  1.34796e+01
       H  1.23434e+01  2.10942e+01  1.54963e+01
       C  1.29702e+01  1.75854e+01  1.73458e+01
       O  1.52047e+01  1.73805e+01  1.78637e+01
       N  1.09898e+01  1.63676e+01  1.85184e+01
       H  9.26324e+00  1.64716e+01  1.76632e+01
       C  1.11335e+01  1.48016e+01  2.06854e+01
       C  9.07658e+00  1.32060e+01  2.11261e+01
       H  7.51622e+00  1.31847e+01  1.97983e+01
       C  9.05936e+00  1.15575e+01  2.32048e+01
       H  7.49795e+00  1.02592e+01  2.34556e+01
       C  1.31571e+01  1.48114e+01  2.23987e+01
       H  1.47155e+01  1.61113e+01  2.21769e+01
       C  1.31391e+01  1.31872e+01  2.44958e+01