648
# CELL(abcABC):   35.23300    35.23300    35.23300    90.00000    90.00000    90.00000  cell{atomic_unit}  Traj: forces{atomic_unit} Step:           0  Bead:       0 
       O  5.29889e-02 -6.71489e-02  1.14656e-02
       H -2.66491e-02  5.21666e-02 -2.69997e-02
       H -2.27127e-02  7.89183e-03  1.65725e-02
       O -1.58497e-03 -1.22211e-02  9.70059e-02
       H  2.54877e-02 -8.83867e-04 -6.48909e-02
       H -2.68752e-02  1.89639e-02 -3.10815e-02
       O -3.99543e-02 -2.71577e-02 -1.52162e-02
       H  4.67689e-02 -1.31340e-03  1.26353e-02
       H -4.95057e-03  2.45432e-02  4.65933e-03
       O -4.03300e-03  2.06373e-02  1.65738e-03
       H -6.44053e-03  6.84801e-03  9.78344e-03
       H  1.00677e-02 -1.87195e-02 -1.02229e-02
       O -2.57669e-02  9.33993e-03  2.95136e-02
       H -3.78681e-03 -1.40074e-02 -1.29546e-02
       H  3.23079e-02 -1.56602e-03 -1.50017e-02
       O  3.18953e-02  3.96064e-02  2.50533e-03
       H -2.67436e-02 -3.11695e-02 -5.56021e-03
       H -3.29782e-03  2.60331e-03  2.19855e-03
       O  2.33602e-02 -8.96144e-03 -1.49619e-02
       H -4.45257e-03 -2.41668e-03  1.87647e-03
       H -7.62524e-03  1.85057e-02  7.87509e-03
       O  7.59904e-02  1.98989e-02  1.22790e-01
       H -5.72731e-02 -1.66079e-02 -1.23637e-01
       H -1.69146e-02 -6.95511e-03  3.04898e-04
       O -1.27923e-02  3.13036e-02 -1.47750e-02
       H  1.46009e-02 -3.77077e-02 -3.80103e-03
       H -6.44362e-03  1.02754e-02  1.72867e-02
       O -2.17060e-02  1.34103e-02 -1.51696e-02
       H  1.48676e-02  1.59719e-02 -4.94442e-03
       H  9.73422e-03 -2.17722e-02  2.32088e-02
       O -6.63161e-03 -1.87818e-02  1.97425e-02
       H  1.06710e-02  3.21774e-02 -2.06281e-02
       H -4.90277e-03 -1.36631e-02 -1.45319e-04
       O  7.70623e-03  4.48634e-02 -7.00740e-02
       H  5.13698e-03 -3.39188e-03  7.06417e-02
       H -1.20466e-02 -4.25241e-02 -9.85500e-03
       O -1.88017e-02 -2.18127e-02 -4.04841e-02
       H  5.32383e-03  7.73832e-03  2.30304e-02
       H  7.84308e-03  1.66085e-02  1.27381e-02
       O -5.89852e-02 -1.01013e-01 -3.53006e-02
       H  4.75557e-02  8.36429e-02  2.77940e-02
       H  1.69311e-02  1.14980e-02  9.97453e-03
       O  2.53160e-02 -6.03636e-02  2.77532e-02
       H -1.59049e-03  4.15843e-02 -5.54486e-02
       H -1.91867e-02  1.99299e-02  2.71263e-02
       O  1.55882e-02  1.52675e-02  8.48764e-03
       H -2.45108e-02 -3.00181e-02 -6.61535e-03
       H  3.99892e-03  1.50847e-02 -1.14092e-02
       O -4.14929e-02 -7.80891e-02 -2.13804e-02
       H  3.06218e-02  6.73674e-02  1.41240e-02
       H  7.99035e-03  6.40582e-03  8.06824e-03
       O -6.10841e-04  1.28041e-02 -9.91190e-03
       H  1.14444e-02  3.81199e-03  3.04914e-04
       H -1.30312e-02 -1.28051e-02  1.49977e-02
       O -1.29374e-02 -1.52370e-03  9.64902e-02
       H -2.23953e-02 -1.77249e-02 -6.59409e-02
       H  3.38167e-02  2.40860e-02 -3.25595e-02
       O -1.75687e-02 -2.39109e-02  6.04633e-02
       H  1.00381e-02  1.99438e-02 -6.12423e-03
       H  2.14421e-02  7.26632e-03 -4.39945e-02
       O -4.78823e-02 -4.38235e-02  3.52255e-02
       H  7.86487e-02  1.63577e-03 -4.56027e-03
       H -3.51574e-02  4.61295e-02 -3.51439e-02
       O  7.29887e-02  7.26595e-02 -8.60207e-03
       H -2.89236e-02 -2.86305e-02 -2.27788e-02
       H -4.06024e-02 -4.90804e-02  2.33983e-02
       O -5.45909e-03 -3.64387e-02 -9.05294e-03
       H -2.54299e-02  2.04003e-02 -7.82856e-03
       H  3.49791e-02 -8.59789e-04  1.15843e-02
       O -1.04966e-02  2.43452e-02  2.32597e-02
       H  5.18223e-03 -2.85646e-02 -3.63220e-02
       H  7.13626e-03 -2.69556e-03  1.36841e-02
       O  7.78840e-03  1.50127e-03 -4.68789e-02
       H -2.06378e-02 -1.49943e-02  2.03295e-02
       H  9.79171e-03  1.32415e-02  2.90238e-02
       O  2.72530e-02  1.41102e-02  3.27050e-02
       H  1.03919e-02 -2.29772e-02  8.57835e-03
       H -1.99060e-02  1.73292e-02 -3.56768e-02
       O  7.68765e-03 -3.19022e-02 -9.05668e-03
       H -3.19737e-02  1.61459e-02 -1.16816e-02
       H  2.11753e-02  7.83797e-03  1.49432e-02
       O -1.23701e-02  2.51234e-02  1.13124e-01
       H  9.90149e-03  1.14660e-03 -7.72548e-03
       H -7.63413e-05 -3.35286e-02 -9.82710e-02
       O -5.76902e-03 -3.87852e-02  7.12597e-03
       H  1.23902e-02  8.01045e-03 -9.31392e-03
       H -7.21624e-03  2.63452e-02  9.75823e-04
       O -1.75208e-02  1.43321e-02 -6.19094e-03
       H  1.81712e-03 -3.15015e-03  8.24322e-03
       H  1.00668e-02 -9.56531e-03 -4.43889e-03
       O -5.14638e-03  6.05962e-02  1.05380e-01
       H  5.24937e-02 -3.59988e-02 -4.88135e-02
       H -3.96815e-02 -3.56618e-02 -4.86726e-02
       O -5.28312e-04  1.40722e-02 -1.23472e-02
       H -6.67722e-03  1.09834e-02  7.65460e-03
       H  5.94373e-03 -3.39507e-02  1.12444e-02
       O  9.49689e-03  4.72642e-02 -3.08735e-04
       H  2.07449e-02 -1.77414e-02 -7.69081e-04
       H -2.23879e-02 -2.66274e-02  5.78037e-03
       O -2.65815e-02  9.98804e-03 -3.79784e-02
       H  9.34333e-03 -1.58462e-02  2.82892e-02
       H  7.72977e-03  1.13129e-02  9.78999e-03
       O -4.15780e-02  4.28129e-04 -2.61307e-02
       H  3.59705e-02  1.12569e-03  3.54776e-02
       H  7.29572e-03  8.83321e-03 -3.94310e-03
       O  2.64016e-02 -1.77285e-02 -5.03427e-03
       H -6.30753e-03 -4.51101e-03 -5.25391e-03
       H -1.51305e-02  2.16603e-02  1.07117e-02
       O -4.75083e-03 -4.97400e-02  5.08171e-03
       H  6.38853e-03  3.42532e-02  9.69975e-03
       H -2.09136e-03  9.93978e-03 -1.47811e-02
       O -1.41920e-02  3.78283e-02 -6.44542e-02
       H  3.48006e-02 -2.23765e-02  2.72929e-02
       H -1.84330e-02 -1.39721e-02  3.64233e-02
       O  3.65661e-02 -1.75473e-02 -2.04865e-02
       H -2.90543e-02  1.35878e-02  2.79441e-02
       H -6.04438e-03  7.92219e-03 -1.30857e-02
       O -5.50405e-04 -1.41612e-02 -1.68668e-02
       H  3.91430e-03  8.79766e-03  7.84090e-03
       H -2.64160e-03  8.26651e-03  1.29867e-02
       O  2.93085e-02  2.68173e-03  3.22892e-02
       H -1.76991e-03  1.77703e-02 -1.13777e-02
       H -2.15904e-02 -1.62729e-02 -2.10072e-02
       O  3.41217e-02 -1.34228e-02 -2.62081e-02
       H -2.50469e-02 -5.56342e-03  8.66587e-03
       H -8.63828e-03  1.25405e-02  2.25740e-02
       O -3.90116e-02 -4.15761e-02  4.91379e-02
       H  4.31605e-02  1.93352e-03 -1.21175e-02
       H  2.60606e-03  4.22552e-02 -3.05533e-02
       O -2.20151e-02  8.36771e-02 -5.43886e-02
       H  1.85578e-02 -3.76938e-03  4.11133e-02
       H -3.19110e-03 -7.40035e-02  1.65404e-02
       O  8.87143e-03 -2.64094e-02  6.38696e-03
       H  5.79709e-03 -8.84304e-04 -2.76191e-03
       H -2.09017e-02  3.14576e-02  1.63050e-02
       O  3.12852e-02  3.08082e-02 -1.92376e-02
       H -7.10748e-03  1.27921e-02  7.95201e-03
       H -2.39099e-02 -4.76061e-02  1.00341e-02
       O -2.65603e-02 -5.97110e-02 -9.52850e-03
       H  2.93289e-02  4.09514e-02  6.42012e-03
       H -9.26527e-03  1.37419e-02  6.39357e-03
       O  1.43095e-02 -4.95989e-02 -6.44491e-02
       H -3.13942e-04 -1.13086e-02  4.18547e-02
       H -1.57142e-02  5.44093e-02  2.24056e-02
       O -7.07842e-02 -7.32191e-02 -1.52224e-02
       H  2.68835e-02  6.86696e-02  1.44529e-02
       H  4.72343e-02  7.61334e-03  1.24660e-03
       O  3.12736e-02  3.00981e-02  6.28569e-03
       H -2.31814e-02  2.04552e-04 -4.56682e-03
       H -1.19634e-02 -2.80437e-02  2.06050e-03
       O -1.44536e-02 -4.48220e-02  1.86482e-02
       H  1.11640e-02  2.36504e-02 -9.78791e-03
       H  2.88603e-03  1.76233e-02 -1.76271e-02
       O  9.59278e-03 -8.47022e-02  3.97529e-02
       H -2.57092e-02  4.15523e-02 -3.17674e-02
       H  1.85146e-02  3.98103e-02 -4.12666e-03
       O -7.86444e-02 -1.14460e-01  6.68511e-02
       H  5.40328e-02  3.27300e-02  7.83726e-03
       H  2.81635e-02  8.38537e-02 -7.66610e-02
       O  3.26483e-02  4.52565e-03  6.28737e-03
       H -4.59946e-03  2.15820e-02  1.62129e-02
       H -1.97699e-02 -2.17596e-02 -2.20276e-02
       O -3.44836e-02  2.49760e-02 -1.52299e-02
       H  2.87462e-02 -3.45832e-02  6.11314e-03
       H  2.02127e-03  9.64791e-03  1.23927e-02
       O -2.30731e-02 -2.89937e-02  3.81837e-02
       H  1.46338e-02  2.94781e-02  1.51814e-02
       H  6.59883e-03  6.24215e-03 -5.50749e-02
       O  1.12408e-02 -8.37747e-02  2.83086e-02
       H  1.76591e-02  2.00050e-02 -1.25421e-02
       H -2.20050e-02  6.10909e-02 -9.31339e-03
       O -6.40641e-02  4.97340e-02  3.60739e-02
       H  4.86451e-02 -3.45346e-02 -4.57478e-02
       H -4.58497e-03 -1.02650e-02  8.28439e-03
       O -1.04987e-02  1.27190e-04  2.89931e-02
       H  2.74614e-02 -9.47575e-03 -1.68211e-02
       H -7.80637e-03  4.34312e-03 -9.75805e-04
       O  4.21211e-03 -1.65454e-02  3.94599e-02
       H -2.42841e-02 -3.20917e-03 -8.44096e-03
       H  1.20372e-02  2.19047e-02 -3.47035e-02
       O -1.71220e-02  2.76237e-02  2.01631e-02
       H  8.22929e-03 -2.13048e-02 -1.21900e-02
       H  7.90769e-03 -1.41394e-02 -8.78285e-03
       O -8.40565e-02  9.88486e-03  2.40001e-02
       H  7.43323e-02  3.30363e-02 -4.69138e-02
       H  8.80604e-03 -3.54619e-02  1.54318e-02
       O -1.22853e-02  2.33360e-02  1.11222e-02
       H -5.86510e-03 -1.07310e-02 -1.21658e-02
       H  1.47330e-02 -1.73927e-02 -2.95351e-04
       O -3.16922e-04  2.68377e-02 -2.74437e-02
       H -7.89686e-03  6.98326e-03 -2.43752e-03
       H  4.92762e-03 -2.73721e-02  2.50944e-02
       O  1.33047e-02 -3.68233e-02  4.88064e-02
       H -3.12426e-02  8.63094e-03 -2.57629e-02
       H  1.78163e-02  2.79643e-02 -2.51306e-02
       O  5.77960e-03 -3.24778e-02 -7.85426e-03
       H  2.55329e-03  2.80914e-02  1.19786e-02
       H -8.05779e-03  4.94042e-03 -2.73080e-03
       O  4.68913e-02 -3.37054e-03 -1.22903e-02
       H  8.54145e-03  1.24442e-02  1.27634e-02
       H -6.00231e-02 -1.23040e-02  3.62240e-04
       O -5.48969e-02  9.93647e-03 -1.45350e-02
       H  1.05268e-02  1.01825e-02  2.58071e-02
       H  3.91019e-02 -1.73014e-03 -1.10103e-02
       O -7.75544e-03 -3.96534e-02 -2.03968e-02
       H -4.77460e-03 -1.27549e-02  2.50006e-03
       H  9.20034e-03  4.56498e-02  1.86530e-02
       O  5.05761e-03  4.83876e-03  2.60217e-03
       H -6.28101e-03  6.80798e-03 -2.78070e-03
       H  4.20276e-03 -7.63377e-03 -4.92399e-03
       O  2.97192e-02 -1.02785e-01  1.05542e-02
       H -3.48278e-02  3.34726e-02  5.94781e-02
       H  7.12917e-03  6.75141e-02 -6.76426e-02
       O -2.43033e-02  7.57670e-02 -3.20028e-02
       H -1.34894e-02 -4.48400e-02  6.21781e-04
       H  3.48649e-02 -2.88609e-02  3.25306e-02
       O  6.39158e-02  9.14669e-04 -2.09761e-02
       H -6.45329e-02 -1.09963e-02 -1.11269e-03
       H  5.94503e-03  6.89329e-03  7.65135e-05
       O -6.85571e-03  3.67458e-02 -1.39142e-02
       H -1.75741e-02 -1.18690e-02  7.30869e-04
       H  2.24217e-02 -2.37130e-02  1.04356e-02
       O -3.82794e-03 -5.70775e-03  1.83500e-03
       H  4.95407e-03  4.40146e-03  4.44356e-05
       H -3.27664e-04  1.55708e-03 -5.00339e-03
       O -2.31493e-02  9.17813e-02  1.52273e-01
       H -2.36549e-02  2.72044e-04 -6.74749e-02
       H  5.29934e-02 -9.71875e-02 -8.59672e-02
       O -6.49730e-02  4.12471e-02  8.04299e-02
       H  5.17771e-02  2.35436e-02 -3.93233e-02
       H  3.35365e-03 -6.81164e-02 -3.47498e-02
       O  1.33541e-01 -4.81204e-03  1.36714e-02
       H -9.47299e-02 -2.47779e-02  3.50030e-02
       H -3.96212e-02  3.22774e-02 -5.23949e-02
       O  7.42970e-02 -6.04987e-02  9.46658e-02
       H -9.10087e-02  3.26546e-02 -3.03385e-02
       H  1.06893e-02  3.00735e-02 -6.90509e-02
       O  8.47689e-02 -6.21570e-03  3.03162e-02
       H -3.80225e-02 -3.41868e-02 -4.97510e-03
       H -4.62203e-02  3.42973e-02 -2.25574e-02
       O -3.35179e-02  4.71549e-02  2.30390e-02
       H  5.11105e-02 -5.95913e-02 -2.07968e-02
       H -1.30793e-02  6.07213e-03 -4.84588e-03
       O  2.17405e-02 -2.68732e-02  5.06052e-02
       H  4.30775e-03  9.67097e-03 -6.69898e-03
       H -3.39773e-02  1.78354e-02 -3.95280e-02
       O  6.43596e-02 -1.71571e-02 -2.86789e-02
       H -2.08476e-02 -4.32960e-04  9.74299e-03
       H -3.84937e-02  1.73669e-02  2.16260e-02
       O -4.05557e-02 -1.58057e-02 -9.90127e-03
       H -1.77264e-02  1.48016e-02 -3.43239e-03
       H  5.37157e-02  8.68718e-03  9.81460e-03
       O  1.66634e-02 -6.42369e-02  1.67054e-02
       H  1.50639e-02  6.19648e-02 -1.73022e-02
       H -1.99948e-02 -4.83425e-04  6.68665e-03
       O  7.87954e-02 -1.91607e-02  2.97274e-02
       H -1.35639e-02  5.59194e-02  2.33405e-03
       H -7.38770e-02 -3.83056e-02 -3.38931e-02
       O -6.07381e-02 -5.14085e-02  9.06594e-02
       H -7.76584e-03  1.62376e-02 -7.36813e-02
       H  6.79954e-02  3.66181e-02 -1.54795e-02
       O  6.33856e-02 -8.61632e-03  6.16969e-02
       H -2.63702e-02  2.87464e-03 -6.78085e-03
       H -3.91741e-02  2.11339e-03 -5.72889e-02
       O -3.15867e-02  5.54759e-02  3.56782e-02
       H  1.15483e-02 -5.66607e-02 -4.51753e-02
       H  2.09994e-02 -4.72957e-03  1.13973e-02
       O  4.19046e-02  7.09323e-02 -2.40298e-02
       H -7.46452e-03 -5.29439e-03  1.14380e-02
       H -3.93526e-02 -5.76888e-02  1.62594e-02
       O  4.02270e-03  1.04753e-02 -8.55177e-03
       H  1.04583e-03 -2.85451e-04 -4.40816e-03
       H -2.90894e-03 -1.16468e-02  1.06781e-02
       O  5.11513e-02  1.81734e-02  3.40794e-03
       H -2.67003e-02 -1.17327e-02  5.98788e-03
       H -2.47486e-02 -6.59146e-03 -1.05240e-02
       O  2.49779e-02  2.82546e-02 -4.73309e-02
       H -3.60576e-02 -2.38155e-02  5.96581e-02
       H  7.37968e-03 -1.06820e-02 -1.19233e-03
       O -3.83979e-03 -1.87468e-02 -7.69810e-03
       H  7.89113e-03  5.61222e-03  2.64155e-02
       H -8.67463e-03  1.51342e-02 -1.65447e-02
       O  3.45444e-02  1.99376e-02  1.79378e-02
       H -2.12399e-02  1.08946e-02 -2.60380e-02
       H -1.21399e-03 -3.29270e-02  1.14263e-02
       O  3.10124e-02 -1.37339e-02  1.79754e-02
       H -2.76607e-02  1.25269e-02  4.73452e-03
       H -2.03240e-03  6.18521e-03 -2.11180e-02
       O  3.14653e-03  5.20132e-02  5.45329e-04
       H -6.68980e-03 -1.52975e-02  4.63095e-03
       H  1.96803e-03 -3.50710e-02 -8.79582e-03
       O -2.35166e-02 -7.64415e-03 -5.00613e-02
       H  4.06016e-02  1.29385e-02  4.58225e-02
       H -2.01866e-02  4.01772e-03  1.19501e-02
       O  2.06986e-02 -4.95237e-02 -6.82975e-02
       H -8.82591e-03  3.13454e-02  5.17230e-02
       H -5.23314e-03  1.91438e-02  8.97780e-03
       O -3.51331e-02  3.79322e-02 -5.64454e-02
       H -1.58939e-02 -4.25447e-03  2.70759e-02
       H  5.16716e-02 -2.83030e-02  2.67510e-02
       O  3.36395e-02 -3.04358e-02  1.52319e-02
       H  1.09291e-02  1.16088e-02 -9.19128e-03
       H -4.54653e-02  1.31038e-02 -4.01408e-03
       O  4.42721e-02  9.05660e-02 -1.24839e-03
       H -3.99566e-02 -4.88524e-02 -2.45869e-02
       H -2.55521e-04 -4.48994e-02  1.43626e-02
       O  1.49459e-02  7.05237e-03  6.51826e-03
       H -4.12074e-03 -1.49589e-02 -1.28666e-03
       H -8.63847e-03  4.37031e-03 -9.25615e-03
       O -1.30942e-01 -8.82596e-02  1.95765e-02
       H  1.49167e-01  7.46792e-02 -9.00115e-04
       H -2.74326e-02  1.43324e-02 -1.78056e-02
       O -5.52186e-02  1.59914e-02  1.54734e-02
       H  1.25494e-02 -1.68559e-02  4.97639e-04
       H  3.30214e-02  2.94392e-03 -6.33480e-03
       O  1.56839e-02 -4.50210e-02  7.99622e-03
       H -1.43185e-02  3.22316e-02 -4.43812e-03
       H -2.65512e-03  1.52448e-02 -4.93116e-04
       O -1.48029e-02 -1.29864e-02  5.08922e-03
       H  1.27248e-02  3.38568e-03 -2.28939e-02
       H  1.10787e-04 -6.37301e-04  6.47975e-03
       O  4.98096e-02 -5.32298e-02  3.85338e-02
       H -1.07500e-02  2.15802e-02  2.57034e-02
       H -3.44885e-02  3.97289e-02 -5.30678e-02
       O -4.72123e-02 -3.67992e-03  1.34622e-01
       H  5.77955e-02  1.10663e-02 -1.11774e-01
       H -1.33566e-02 -1.18936e-02 -2.00345e-02
       O -7.91465e-02  6.15588e-02 -2.42131e-02
       H  6.45716e-02  1.78976e-03  1.68943e-02
       H  1.24169e-02 -6.66273e-02  7.34924e-03
       O  3.16691e-03 -2.75655e-02 -4.16121e-02
       H  2.29034e-02  3.51100e-02  4.93926e-02
       H -1.93167e-02  1.84288e-03 -1.36262e-02
       O -2.64098e-02 -8.02321e-02 -6.18549e-02
       H -1.66688e-02  2.16562e-02  3.88646e-02
       H  4.88909e-02  5.65986e-02  1.81044e-02
       O -7.83605e-03 -1.13705e-02 -3.04591e-02
       H -7.46188e-03 -2.01437e-02 -8.46349e-03
       H  1.70460e-02  3.10815e-02  4.13767e-02
       O  6.63991e-02  8.18002e-03  3.90901e-02
       H -8.57147e-03 -1.08492e-02 -1.29546e-02
       H -4.08044e-02 -6.47874e-03 -3.37277e-02
       O -2.24048e-03 -7.73937e-02 -1.20139e-01
       H  9.48581e-04  1.00236e-02  1.04271e-02
       H  1.92661e-03  6.87789e-02  1.16826e-01
       O -1.17784e-02 -2.84541e-02  5.27566e-02
       H -1.85817e-03 -3.28398e-03 -6.12338e-02
       H  1.14519e-02  2.00797e-02  2.27480e-03
       O  8.77042e-03 -2.20014e-02  3.59458e-02
       H  1.91387e-02  1.65287e-02 -1.34286e-02
       H -1.85263e-02  1.22957e-02 -1.57425e-02
       O  1.91952e-02 -2.62605e-02 -2.75155e-02
       H -2.62971e-02  6.36453e-03  1.07001e-02
       H  5.71219e-03  2.03477e-02  1.42465e-02
       O -2.40714e-02  9.69679e-03  5.32578e-02
       H  2.13354e-02  4.05394e-03 -5.30987e-02
       H  1.69825e-03 -7.01950e-04  1.17039e-02
       O -9.64207e-03  5.14462e-02 -3.12266e-04
       H -3.24566e-02 -6.05574e-02  5.27652e-03
       H  3.71732e-02 -3.85638e-03 -5.26762e-03
       O  4.79781e-02  1.03488e-02  4.66866e-02
       H -1.40251e-02 -8.66966e-03 -4.02812e-02
       H -3.49480e-02  3.04973e-03 -5.72915e-03
       O -1.80094e-03  1.66816e-02  4.03717e-02
       H -4.64729e-04 -3.58572e-03  1.18167e-03
       H  7.18329e-03 -1.02862e-02 -4.27079e-02
       O -1.72497e-02  5.12456e-02 -2.69210e-02
       H -6.74814e-03 -4.92662e-02  1.49969e-02
       H  1.92310e-02  4.85628e-03  1.28532e-02
       O -3.10345e-04  1.68158e-02 -9.00888e-04
       H -2.80353e-03  6.15373e-03  3.09763e-03
       H  5.33430e-03 -2.94481e-02 -2.06114e-03
       O  1.50952e-02  3.05103e-02 -2.01975e-02
       H -2.34083e-02 -5.05992e-03  5.23822e-03
       H  6.75898e-04 -3.01949e-02  2.51263e-02
       O  3.57492e-02 -1.05165e-02 -6.43826e-02
       H -7.58699e-03  4.22884e-02  3.36890e-02
       H -1.72501e-02 -3.71998e-02  1.74842e-02
       O  1.58140e-02  2.20321e-02  2.71639e-02
       H -1.52483e-02 -1.36074e-02 -1.33353e-02
       H -4.43017e-03 -5.85642e-03 -3.54555e-03
       O  9.43223e-03 -5.00975e-02 -4.23247e-02
       H -3.66147e-04  3.75081e-02  2.92795e-02
       H -6.90880e-03  1.02640e-02  9.77780e-03
       O  2.38039e-02 -3.84771e-03 -6.41347e-02
       H  8.59301e-03 -1.04707e-02  8.77611e-03
       H -3.07968e-02  1.81535e-02  4.94911e-02
       O  3.54357e-02 -1.26696e-02 -5.16352e-03
       H -8.67832e-04  9.73422e-03 -2.04887e-03
       H -3.57847e-02  8.72705e-03  9.43202e-04
       O -3.07591e-02 -8.06175e-02  5.96134e-04
       H -1.73322e-02 -1.07147e-02  4.29086e-02
       H  4.50519e-02  8.63969e-02 -5.44880e-02
       O  2.13086e-02  4.68400e-02  4.75110e-02
       H -1.22685e-02 -1.34654e-02 -4.60236e-03
       H -1.60640e-02 -2.88810e-02 -2.38925e-02
       O  1.81594e-03  7.70254e-02  4.09152e-02
       H  2.87660e-02 -5.40817e-02  2.97662e-02
       H -2.27881e-02 -3.75828e-02 -7.51398e-02
       O  6.55221e-03 -8.50861e-02 -4.18823e-02
       H -2.16686e-02  5.47352e-02  1.66396e-02
       H  1.55315e-02  1.96494e-02  1.76019e-02
       O  2.21858e-02  1.84071e-02 -3.07083e-03
       H -3.35475e-02 -2.30820e-02 -8.60206e-04
       H  2.30680e-02  2.93442e-03  1.61197e-03
       O  4.63249e-02 -2.45969e-02  9.80072e-03
       H -1.26580e-03  4.94912e-03 -4.53662e-03
       H -4.27875e-02  1.68265e-02 -3.36069e-03
       O  2.91745e-02 -4.35512e-02  2.07428e-02
       H -3.85560e-02  3.03222e-02 -3.40606e-02
       H  4.76512e-03  8.98169e-03  1.34371e-02
       O -1.14311e-02  1.87231e-02  2.14399e-02
       H -5.60524e-03 -1.86665e-02 -1.51140e-02
       H  1.27529e-02 -1.79070e-03 -8.98473e-03
       O -1.58882e-03  7.86332e-02 -9.62841e-03
       H -2.08120e-02 -1.46321e-02  1.95080e-02
       H  1.17147e-02 -5.15456e-02 -1.28007e-02
       O -4.14187e-02 -2.65768e-02  5.61604e-03
       H  2.87544e-02  1.14478e-02  1.17856e-02
       H  1.65710e-02  1.08494e-02 -1.52687e-02
       O  1.49587e-02  5.12459e-02 -2.36979e-02
       H -2.19164e-02 -2.50675e-02 -1.20646e-02
       H  5.14335e-03 -3.54010e-02  3.45151e-02
       O  4.19989e-02  6.74668e-03  5.00049e-03
       H  6.80145e-03  8.82119e-03  7.87986e-03
       H -4.46458e-02 -4.24774e-03 -1.03821e-02
       O  3.58983e-02  5.28638e-02 -4.38870e-02
       H -2.39436e-02 -5.95263e-02  3.61429e-02
       H -9.45173e-03  1.00915e-02  7.96057e-03
       O -4.32029e-02 -2.81345e-02 -1.89049e-02
       H  1.84374e-03  6.86931e-03 -6.56732e-03
       H  3.88025e-02  1.34930e-02  1.69866e-02
       O  3.51975e-03  9.20680e-03  6.06318e-02
       H  1.20923e-02 -3.27585e-02 -4.96126e-02
       H -1.60628e-02  2.94106e-02 -1.15402e-02
       O -2.35449e-02 -1.80413e-02  5.37766e-03
       H  8.87195e-03  1.94042e-02  3.22537e-03
       H  1.08367e-02 -2.43205e-04 -4.46916e-03
       O  8.45310e-02 -1.10981e-02 -3.56302e-02
       H -6.24089e-02  2.18488e-02 -8.40971e-03
       H -2.27493e-02 -1.40848e-02  4.53098e-02
       O  6.06631e-02  5.26213e-03 -9.76049e-03
       H -6.41136e-03  3.80590e-03 -9.74502e-04
       H -6.14536e-02 -1.69274e-03  1.66189e-02
       O  1.48724e-02 -1.33694e-02 -1.78045e-02
       H -9.82498e-03  4.08536e-03 -3.01481e-03
       H -5.39279e-03  6.46176e-03  2.18131e-02
       O -5.38875e-02  2.68338e-02 -1.26242e-02
       H  4.91544e-03 -3.79855e-02  6.17398e-03
       H  3.55542e-02  4.66094e-03  9.12979e-03
       O  6.98971e-02  3.02874e-02 -4.74955e-02
       H -2.56821e-02 -2.95668e-02 -2.65548e-03
       H -4.15971e-02 -7.06120e-05  4.61114e-02
       O  6.76468e-02 -2.93037e-02  1.76363e-02
       H -7.40568e-02  3.45461e-02 -9.37390e-03
       H -8.66907e-04 -1.78509e-03 -1.59062e-03
       O -9.52151e-04  2.34782e-03 -2.09882e-02
       H  1.56472e-02  1.06697e-02  1.26697e-02
       H -5.05284e-03 -7.91793e-03  5.26131e-03
       O  5.08355e-02 -1.14520e-01  2.89259e-02
       H  2.35074e-02  6.09144e-02 -1.49099e-02
       H -7.24271e-02  5.17422e-02 -1.28394e-02
       O -1.73999e-02 -2.55197e-02 -2.64856e-02
       H  3.81464e-03  1.46996e-02 -1.21580e-02
       H  3.80842e-03  4.77707e-03  4.08915e-02
       O -6.64846e-04  2.45132e-02  8.22035e-02
       H -9.29667e-03 -2.70618e-02 -1.53675e-02
       H  1.42557e-02  1.45783e-02 -6.88519e-02
       O -4.69809e-03  5.99018e-03 -8.48368e-03
       H -6.01709e-03 -9.45515e-03  1.61142e-02
       H  9.78541e-03  7.38764e-03 -1.00313e-02
       O -1.79818e-02  4.19889e-02  6.08600e-02
       H -2.44305e-03 -7.74742e-03  5.70329e-03
       H  1.67984e-02 -4.24139e-02 -6.37753e-02
       O  8.04475e-02  1.20371e-02  4.88159e-02
       H -6.58768e-02 -3.32030e-02 -2.45775e-02
       H -1.61107e-02  2.15943e-02 -1.95937e-02
       O -8.04213e-02  1.77855e-02  5.16103e-02
       H  6.70842e-02  1.84151e-02 -3.62396e-02
       H  1.71270e-02 -4.12718e-02 -1.75048e-02
       O  4.47812e-02  3.08708e-02  5.27850e-02
       H -4.19281e-02 -2.90713e-02 -4.49418e-02
       H  4.26047e-03  7.51530e-03 -4.62920e-03
       O -5.82712e-03 -3.11561e-02 -6.50354e-03
       H -7.05624e-03  1.55920e-03 -1.33585e-02
       H  1.30092e-02  2.87918e-02  2.88813e-02
       O  5.74094e-02 -3.68625e-02 -2.34897e-02
       H -4.91337e-02  3.97238e-02 -1.11141e-02
       H -1.86206e-02 -2.46837e-03  3.20006e-02
       O -5.50218e-02  7.72468e-02  1.63945e-02
       H  1.15262e-04 -1.68736e-02 -1.05975e-03
       H  5.76957e-02 -5.03466e-02 -1.58256e-02
       O -5.57619e-02 -3.82751e-02  2.89232e-02
       H -6.86355e-03  1.33859e-02 -1.27242e-02
       H  5.53910e-02  2.51443e-02 -2.03194e-02
       O  6.45975e-03  5.92635e-02 -3.33736e-02
       H -3.00118e-03 -4.39914e-02  2.33223e-02
       H  1.84206e-03 -1.40930e-02  4.72120e-03
       O -5.97795e-03  1.06071e-01  4.51195e-02
       H  3.56109e-02 -7.03069e-02 -1.15845e-02
       H -4.03927e-02 -3.06639e-02 -2.65584e-02
       O  3.84147e-02  4.58696e-02 -3.28052e-02
       H -3.38338e-02 -2.05004e-02  1.34373e-02
       H  3.05866e-03 -2.69230e-02  6.50072e-03
       O  4.68816e-03  4.00406e-02 -1.23441e-03
       H  1.66250e-03  2.24595e-02 -3.61500e-03
       H  4.07455e-03 -5.95843e-02  4.50304e-03
       O -1.45940e-02 -1.38331e-02 -4.47703e-02
       H -1.10831e-02  1.27935e-02  1.62640e-02
       H  2.24510e-02  3.94273e-03  3.25285e-02
       O  3.17510e-02  1.65231e-02 -7.73889e-02
       H -2.59700e-02 -5.74519e-03  5.77617e-02
       H -1.00575e-02 -1.05365e-02  1.28923e-02
       O -3.04051e-02 -4.85467e-02 -2.19605e-02
       H  3.65319e-02  2.20699e-02 -1.69361e-03
       H -5.95964e-03  3.23735e-02  3.02199e-02
       O  2.28706e-02  1.66096e-02  1.22023e-03
       H -7.31704e-03 -1.46019e-02  4.30757e-03
       H -1.43704e-02 -2.34115e-03 -1.37678e-02
       O  7.16340e-02  2.27794e-03  8.25382e-02
       H -2.80501e-02  3.82137e-02 -1.94183e-02
       H -3.84648e-02 -3.86614e-02 -6.60487e-02
       O -5.80432e-02  1.47119e-02 -1.72918e-02
       H  4.87034e-02 -1.08117e-02  9.31233e-04
       H  5.83592e-03 -7.67182e-03  1.51471e-02
       O  3.69746e-02  3.67611e-02  3.95750e-02
       H -1.58952e-02 -1.09122e-02 -2.67787e-02
       H -2.10876e-02 -2.10432e-02 -1.22337e-02
       O -1.97390e-02  7.42899e-02 -4.00065e-02
       H -2.02895e-02 -3.89266e-03  2.41612e-02
       H  3.64808e-02 -6.94782e-02  1.03961e-02
       O  1.81951e-02 -6.28531e-02 -1.58088e-03
       H  3.55966e-03  5.02663e-02  1.15018e-02
       H -1.40863e-02  1.20605e-02 -1.22164e-02
       O -3.84837e-03 -1.91832e-02  9.54602e-03
       H  1.17147e-03  5.13277e-02 -1.71458e-03
       H -4.96422e-04 -3.84078e-02 -1.96675e-02
       O  1.66679e-02 -7.63384e-03 -1.57966e-03
       H  4.92916e-03  1.04790e-02 -1.79160e-03
       H -2.21826e-02 -5.96700e-03  1.08440e-02
       O -1.74900e-02  3.33627e-02  3.92703e-02
       H -3.66355e-03  3.31079e-02  2.38039e-03
       H  2.11083e-02 -6.73473e-02 -3.85943e-02
       O  6.02808e-02  6.51369e-03 -1.83945e-02
       H -4.56694e-03  4.07591e-03  1.34448e-03
       H -5.71744e-02 -7.26747e-03  2.00040e-02
       O -1.98193e-02 -3.73925e-02  3.23517e-02
       H  1.47188e-02  2.95796e-02 -3.26039e-02
       H  5.00422e-03  8.36266e-03  3.11915e-04
       O -3.83705e-02  3.26732e-02 -3.63019e-02
       H  9.93180e-03 -1.20173e-02 -1.06673e-02
       H  2.87921e-02 -2.07822e-02  5.28283e-02
       O -6.68023e-02  1.98328e-02 -3.09536e-02
       H  2.69964e-02 -1.46067e-02  2.90426e-02
       H  3.43731e-02 -1.32032e-02 -7.32771e-03
       O  1.85868e-02 -5.94380e-02 -1.02624e-02
       H  6.33902e-04  4.11945e-02 -9.06332e-04
       H -2.55030e-02  2.71433e-02  1.60404e-02
       O  4.43964e-02  2.88652e-02  1.45266e-02
       H  8.34186e-03  4.25751e-03  9.69676e-04
       H -4.23528e-02 -3.34927e-02 -1.39048e-02
       O -3.16188e-02  4.80757e-02  4.11634e-03
       H -1.59066e-02 -3.76426e-02  3.03647e-02
       H  4.49621e-02 -1.12150e-02 -3.10031e-02
       O -6.73837e-02  4.60404e-02 -4.91421e-02
       H  6.10195e-02 -4.26737e-02  2.58061e-02
       H  4.68113e-03  4.15773e-03  1.75236e-02
       O  3.69015e-02 -3.27828e-02  8.60497e-02
       H  4.88506e-03  2.08667e-03  8.69791e-03
       H -4.62002e-02  2.59568e-02 -8.58939e-02
       O  2.94919e-02 -2.63597e-02  3.33283e-02
       H -1.09258e-02  7.93557e-03  5.53386e-04
       H -1.22266e-02  1.47752e-02 -3.25471e-02
       O -2.83308e-02  2.63033e-02 -3.70480e-02
       H  2.11006e-02 -1.32881e-02  7.77915e-03
       H  6.59802e-03 -4.54058e-03  2.69077e-02
       O -3.72905e-03 -3.83806e-02 -1.75113e-02
       H  9.34405e-03 -1.24108e-02 -7.94371e-03
       H -1.33853e-02  2.77268e-02  1.87543e-02
       O -8.28589e-02  1.31974e-02 -2.83268e-02
       H  8.79217e-02  5.95591e-03  1.35791e-02
       H  2.12428e-03 -1.96254e-02  1.58889e-02
       O -2.53962e-02 -1.86446e-02  2.44698e-02
       H  2.00898e-02  1.99520e-02 -2.77625e-02
       H  4.71409e-03 -5.79988e-03  4.62949e-04
       O -3.37829e-02  2.31951e-02 -2.81480e-02
       H -1.58471e-02 -2.82168e-02  2.29706e-03
       H  4.83160e-02  8.59617e-03  2.25697e-02
       O -7.69160e-02  1.71494e-03  4.99973e-02
       H  3.22479e-02 -2.19261e-02 -2.35917e-02
       H  4.24757e-02  2.22033e-02 -2.34136e-02
       O -2.14167e-02  5.03683e-02  2.54376e-02
       H  2.26327e-02 -1.41828e-02 -5.67458e-04
       H  3.18774e-03 -2.78450e-02 -2.51509e-02
       O -1.36526e-02  1.17609e-02  1.47239e-03
       H -2.71067e-03  6.11695e-03  1.11292e-02
       H  1.77804e-02  3.98686e-03 -3.03692e-03
       O  1.52535e-02  2.89599e-02  5.24044e-03
       H -2.15153e-02 -2.12290e-02 -1.26078e-02
       H -5.66299e-03 -1.54838e-02 -8.86295e-03
       O  3.74507e-02 -1.30655e-01  2.54811e-02
       H  1.65651e-03  1.12579e-01 -6.11268e-03
       H -4.33172e-02  1.55857e-02 -1.82585e-02
       O  7.46489e-02  4.74997e-02 -2.39895e-02
       H -6.89072e-02  1.77232e-02  2.46879e-02
       H  4.46232e-04 -5.99509e-02 -4.23589e-03
       O  2.37427e-02  5.28565e-02 -3.48408e-02
       H  1.20320e-02 -1.44446e-02 -7.13349e-03
       H -3.10903e-02 -3.44463e-02  4.11277e-02
       O  1.45197e-02  1.42900e-02 -9.93027e-02
       H -3.50998e-02 -1.35526e-02  4.03936e-02
       H  2.24108e-02 -6.34080e-03  5.64145e-02
       O  6.19665e-02  2.80409e-02  1.11517e-03
       H -3.08220e-02 -3.79780e-03 -2.27016e-02
       H -2.59750e-02 -3.28356e-02  2.43704e-02
       O -5.42404e-02  2.82919e-03  2.27050e-02
       H  1.12840e-02 -2.08456e-02  2.13209e-02
       H  4.11265e-02  1.75562e-02 -4.35563e-02
       O -3.42212e-02  7.90072e-02  3.13682e-02
       H  1.49179e-02 -4.61483e-02 -3.56642e-02
       H  1.77080e-02 -4.74403e-02  4.73318e-03