648
# CELL(abcABC):   35.23300    35.23300    35.23300    90.00000    90.00000    90.00000  cell{atomic_unit}  Traj: positions{angstrom} Step:           0  Bead:       0 
       O  2.03522e+00  3.00149e+00  7.00101e-01
       H  1.57642e+00  3.73282e+00  4.53505e-01
       H  2.92370e+00  3.01472e+00  2.38659e-01
       O  1.82868e+01  1.81725e+01  1.62881e+00
       H  1.78449e+01  1.83566e+01  2.56122e+00
       H  1.90657e+01  1.75793e+01  1.96378e+00
       O  2.95863e+00  1.03877e+00  7.13172e+00
       H  3.84447e+00  9.86386e-01  7.32963e+00
       H  2.65065e+00  1.88123e+00  7.36403e+00
       O  5.60928e-01  1.09063e+00  1.14927e+01
       H  4.00587e-01  1.38115e-01  1.15466e+01
       H  1.12715e-01  1.59441e+00  1.21959e+01
       O  6.35013e-01  7.07510e-01  1.53493e+01
       H  4.32867e-01  9.96970e-01  1.62627e+01
       H  1.52562e+00  9.65748e-01  1.53520e+01
       O  7.04335e-01  7.33440e-01  1.81540e+01
       H  1.26579e+00  1.53356e+00  1.84397e+01
       H  4.30750e-01  2.81522e-01  1.89636e+01
       O  1.66432e+01  5.39814e+00  3.84183e-01
       H  1.70829e+01  5.75586e+00 -3.96883e-01
       H  1.63622e+01  6.13528e+00  8.87430e-01
       O  4.42392e-01  5.71935e+00  2.27440e+00
       H  1.61399e-01  5.63203e+00  1.47799e+00
       H -1.88387e-01  5.46852e+00  2.92317e+00
       O  1.81936e+01  3.16395e+00  4.86526e+00
       H  1.77888e+01  4.06038e+00  4.68692e+00
       H  1.85821e+01  2.78347e+00  4.03127e+00
       O  1.75750e+01  3.42907e+00  1.28474e+01
       H  1.67347e+01  3.65556e+00  1.24468e+01
       H  1.72215e+01  2.64059e+00  1.32199e+01
       O  1.05412e+00  4.76365e+00  1.42153e+01
       H  9.82153e-01  5.38438e+00  1.35358e+01
       H  2.74643e-01  4.28581e+00  1.39629e+01
       O  1.08693e+00  4.58267e+00  1.72062e+01
       H  1.14673e+00  4.61813e+00  1.61367e+01
       H  1.25627e+00  5.56324e+00  1.74830e+01
       O  1.80026e+00  8.80498e+00  1.59177e+00
       H  2.18391e+00  8.39910e+00  2.35272e+00
       H  1.53726e+00  9.70458e+00  1.67220e+00
       O  2.23419e+00  8.17261e+00  4.27152e+00
       H  2.75754e+00  8.86689e+00  4.39164e+00
       H  1.35469e+00  8.19801e+00  4.68851e+00
       O  1.49810e+00  4.89277e+00  8.72507e+00
       H  1.51821e+00  4.24559e+00  9.55165e+00
       H  2.09554e+00  4.48054e+00  8.01915e+00
       O  2.94381e+00  3.17665e+00  1.10635e+01
       H  2.46226e+00  2.45432e+00  1.13667e+01
       H  3.38938e+00  3.28513e+00  1.19218e+01
       O  1.10439e+00  7.07510e+00  1.21250e+01
       H  1.49863e+00  7.83394e+00  1.23944e+01
       H  7.58840e-01  7.14866e+00  1.12164e+01
       O  1.78280e+00  9.46486e+00  1.32871e+01
       H  1.93414e+00  9.10185e+00  1.41640e+01
       H  2.52523e+00  1.00422e+01  1.29648e+01
       O  1.83963e+01  1.10085e+01  5.01660e-01
       H  1.86323e+01  1.12540e+01  1.49016e+00
       H  1.90303e+01  1.14969e+01  6.93222e-02
       O  1.50075e+00  1.27944e+01  8.05884e+00
       H  1.47905e+00  1.18250e+01  7.87204e+00
       H  1.27743e+00  1.27611e+01  9.06481e+00
       O  1.74628e+01  1.29548e+01  8.05937e+00
       H  1.83307e+01  1.31257e+01  7.94454e+00
       H  1.71459e+01  1.36337e+01  7.56459e+00
       O  2.13788e-01  1.41708e+01  1.23827e+01
       H  7.15977e-01  1.44190e+01  1.32226e+01
       H  8.18108e-01  1.48434e+01  1.18096e+01
       O  1.81095e+01  1.13138e+01  1.34506e+01
       H  1.88752e+01  1.06635e+01  1.33972e+01
       H  1.74417e+01  1.12080e+01  1.26960e+01
       O  1.75999e+01  9.22779e+00  1.71877e+01
       H  1.76290e+01  9.93901e+00  1.79301e+01
       H  1.73268e+01  9.62097e+00  1.63362e+01
       O  2.36172e+00  1.16308e+01  2.08284e+00
       H  3.09886e+00  1.22155e+01  1.79920e+00
       H  2.10930e+00  1.17372e+01  2.96445e+00
       O  3.31159e+00  1.36798e+01  4.50859e+00
       H  3.05177e+00  1.46545e+01  4.48531e+00
       H  3.81113e+00  1.34972e+01  5.39020e+00
       O  3.18036e-01  1.57361e+01  6.74542e+00
       H -3.62486e-01  1.63209e+01  6.53534e+00
       H  7.06981e-01  1.62542e+01  7.42489e+00
       O  4.00217e+00  1.49180e+01  1.28765e+01
       H  4.86896e+00  1.52551e+01  1.30622e+01
       H  3.90586e+00  1.46164e+01  1.20647e+01
       O  1.93308e+00  1.43455e+01  1.46963e+01
       H  2.71256e+00  1.42957e+01  1.41671e+01
       H  1.60394e+00  1.52170e+01  1.46572e+01
       O  1.37374e+00  1.26955e+01  1.71856e+01
       H  1.52350e+00  1.31188e+01  1.63299e+01
       H  2.11830e+00  1.21250e+01  1.73046e+01
       O  1.63145e+00  1.65722e+01  1.92832e+00
       H  2.18709e+00  1.61870e+01  1.34358e+00
       H  2.23207e+00  1.70252e+01  2.66547e+00
       O  2.46650e+00  1.61690e+01  4.95733e+00
       H  1.68490e+00  1.57922e+01  5.36162e+00
       H  2.30615e+00  1.71707e+01  4.82927e+00
       O  1.83360e+00  1.72178e+01  8.34936e+00
       H  2.68399e+00  1.68379e+01  8.41551e+00
       H  2.14581e+00  1.81280e+01  8.08794e+00
       O  2.23048e+00  1.54271e+01  1.07513e+01
       H  1.93573e+00  1.59685e+01  9.97076e+00
       H  2.62419e+00  1.60293e+01  1.13503e+01
       O  5.95854e-01  1.65807e+01  1.52234e+01
       H  1.26738e+00  1.64701e+01  1.58356e+01
       H  4.06408e-01  1.75115e+01  1.52922e+01
       O  2.58291e+00  1.72596e+01  1.70935e+01
       H  3.48622e+00  1.74158e+01  1.67881e+01
       H  2.37389e+00  1.80116e+01  1.75946e+01
       O  4.74249e+00  2.94011e+00  7.99058e-02
       H  5.10762e+00  3.69948e+00  4.54563e-01
       H  4.85414e+00  2.36913e+00  8.70497e-01
       O  9.69982e-01  1.86165e+00  3.00520e+00
       H  1.52879e+00  1.44518e+00  3.59205e+00
       H  1.47588e+00  2.21567e+00  2.19450e+00
       O  5.56165e+00  1.83762e+01  6.91793e+00
       H  6.30779e+00  1.80545e+01  6.30726e+00
       H  5.97706e+00  1.85043e+01  7.80060e+00
       O  3.81643e+00  2.22254e-02  1.18821e+01
       H  3.66402e+00  2.48713e-01  1.27913e+01
       H  4.40223e+00  6.49830e-01  1.14583e+01
       O  3.36821e+00  1.06365e+00  1.45757e+01
       H  3.15072e+00  1.89710e+00  1.42095e+01
       H  4.10536e+00  1.34887e+00  1.51853e+01
       O  5.73258e+00  1.66162e+00  1.62918e+01
       H  6.71896e+00  1.57430e+00  1.63341e+01
       H  5.49762e+00  1.95796e+00  1.71475e+01
       O  4.59537e+00  4.94357e+00  2.07014e+00
       H  3.69630e+00  4.89806e+00  2.52576e+00
       H  4.59537e+00  5.71988e+00  1.59335e+00
       O  2.57868e+00  5.24891e+00  4.07837e+00
       H  1.95690e+00  5.17059e+00  3.27772e+00
       H  2.67076e+00  6.32949e+00  4.03445e+00
       O  5.30818e+00  2.65541e+00  5.13249e+00
       H  5.11979e+00  1.78968e+00  5.47169e+00
       H  4.83245e+00  3.16818e+00  5.72834e+00
       O  5.95113e+00  2.07332e+00  1.16043e+01
       H  6.67504e+00  1.46582e+00  1.18223e+01
       H  6.38876e+00  3.00890e+00  1.13757e+01
       O  3.61163e+00  3.79103e+00  1.36041e+01
       H  4.25247e+00  4.43133e+00  1.37480e+01
       H  2.75490e+00  4.18050e+00  1.37009e+01
       O  5.38226e+00  6.77929e+00  1.56107e-01
       H  5.30924e+00  6.78299e+00 -8.51446e-01
       H  5.22827e+00  7.66884e+00  2.54005e-01
       O  4.33396e+00  9.20874e+00  6.63059e-01
       H  5.01237e+00  9.80618e+00  6.63059e-01
       H  3.36080e+00  9.42835e+00  8.29750e-01
       O  5.94425e+00  8.56632e+00  4.39164e+00
       H  5.44576e+00  9.36062e+00  4.32126e+00
       H  6.75653e+00  9.06110e+00  4.62130e+00
       O  3.37933e+00  4.23448e+00  6.79781e+00
       H  4.07519e+00  4.70756e+00  7.22591e+00
       H  2.95863e+00  4.69751e+00  6.09559e+00
       O  4.33079e+00  5.51350e+00  9.97393e+00
       H  5.02613e+00  4.99226e+00  1.05333e+01
       H  3.64180e+00  4.77688e+00  1.00268e+01
       O  5.71829e+00  7.63656e+00  1.12863e+01
       H  4.85626e+00  7.16030e+00  1.09381e+01
       H  6.00299e+00  8.30597e+00  1.08206e+01
       O  4.88801e+00  7.37038e+00  1.60558e+01
       H  5.70400e+00  7.85246e+00  1.61515e+01
       H  5.27325e+00  6.98091e+00  1.52927e+01
       O  5.77756e+00  1.14868e+01  9.86386e-01
       H  5.43994e+00  1.24087e+01  1.20599e+00
       H  6.72478e+00  1.13540e+01  9.25531e-01
       O  4.94939e+00  8.53298e+00  7.36985e+00
       H  5.25896e+00  9.31034e+00  7.73551e+00
       H  5.03671e+00  8.65734e+00  6.47925e+00
       O  5.48810e+00  5.87757e+00  7.55030e+00
       H  5.10339e+00  5.50662e+00  8.39222e+00
       H  4.99226e+00  6.62689e+00  7.47039e+00
       O  1.77327e+00  1.20488e+01  1.06873e+01
       H  1.08746e+00  1.25341e+01  1.13789e+01
       H  1.29754e+00  1.13249e+01  1.02729e+01
       O  3.61746e+00  1.12868e+01  1.22764e+01
       H  4.36518e+00  1.10323e+01  1.18112e+01
       H  2.99938e+00  1.15578e+01  1.15816e+01
       O  2.43633e+00  8.28109e+00  1.58981e+01
       H  3.41478e+00  8.05249e+00  1.59849e+01
       H  2.02252e+00  7.81171e+00  1.67019e+01
       O  3.77039e+00  1.05708e+01  4.98538e+00
       H  3.13167e+00  1.08233e+01  5.67807e+00
       H  4.28581e+00  1.13752e+01  5.02242e+00
       O  4.79593e+00  1.37120e+01  6.97773e+00
       H  5.47698e+00  1.40613e+01  6.54433e+00
       H  5.12244e+00  1.28945e+01  7.24814e+00
       O  4.24506e+00  1.18234e+01  9.01824e+00
       H  4.83880e+00  1.23653e+01  9.56435e+00
       H  3.47246e+00  1.24156e+01  8.91769e+00
       O  5.69501e+00  1.39094e+01  1.05640e+01
       H  5.84000e+00  1.47990e+01  1.08682e+01
       H  5.86223e+00  1.34416e+01  1.13540e+01
       O  4.84620e+00  1.21192e+01  1.50239e+01
       H  4.34931e+00  1.24505e+01  1.43328e+01
       H  4.28051e+00  1.15149e+01  1.56155e+01
       O  3.29095e+00  1.06672e+01  1.68919e+01
       H  2.98191e+00  9.79560e+00  1.64897e+01
       H  3.98470e+00  1.03846e+01  1.75004e+01
       O  5.92202e+00  1.66738e+01  1.38486e+00
       H  5.53519e+00  1.70469e+01  2.17386e+00
       H  6.97244e+00  1.68019e+01  1.36369e+00
       O  2.51253e+00  2.91047e-02  4.55357e+00
       H  2.84697e+00  2.73585e-01  5.38861e+00
       H  3.20152e+00 -1.61928e-01  3.95825e+00
       O  4.60120e+00  1.63034e+01  8.32449e+00
       H  4.86261e+00  1.69882e+01  7.67042e+00
       H  4.46996e+00  1.53827e+01  7.86781e+00
       O  5.35951e+00  1.66172e+01  1.09889e+01
       H  5.00390e+00  1.63542e+01  1.01364e+01
       H  4.77318e+00  1.73205e+01  1.13323e+01
       O  6.47607e+00  1.59610e+01  1.36724e+01
       H  6.04215e+00  1.63558e+01  1.43460e+01
       H  6.55968e+00  1.65797e+01  1.30590e+01
       O  5.50080e+00  1.72178e+01  1.62055e+01
       H  5.84317e+00  1.81714e+01  1.62727e+01
       H  6.02098e+00  1.66617e+01  1.66892e+01
       O  5.52355e+00  1.91880e+00  2.69192e+00
       H  6.58032e+00  2.16010e+00  2.71785e+00
       H  5.19758e+00  2.26700e+00  3.53543e+00
       O  7.81171e+00  1.79973e+00  7.28995e+00
       H  8.74095e+00  2.02357e+00  7.07827e+00
       H  7.27725e+00  2.51730e+00  6.86025e+00
       O  6.55227e+00  5.35527e-01  9.33627e+00
       H  7.06240e+00  1.05677e+00  8.70179e+00
       H  6.31361e+00  1.12874e+00  1.00533e+01
       O  8.08477e+00  6.84226e-01  1.29961e+01
       H  8.50441e+00  5.00602e-01  1.39518e+01
       H  8.35782e+00  1.05306e-01  1.24351e+01
       O  1.17615e+01  1.67363e+01  1.30770e+01
       H  1.23499e+01  1.72485e+01  1.26346e+01
       H  1.17271e+01  1.59034e+01  1.27701e+01
       O  8.27633e+00  9.77390e-01  1.73131e+01
       H  9.25425e+00  1.30866e+00  1.68670e+01
       H  8.68009e+00  4.59855e-01  1.81333e+01
       O  7.86252e+00  5.39708e+00  1.45735e+00
       H  7.06981e+00  5.66855e+00  1.20758e+00
       H  7.70482e+00  4.92981e+00  2.41252e+00
       O  8.31708e+00  4.48160e+00  5.68283e+00
       H  9.16694e+00  5.07005e+00  5.75480e+00
       H  7.71223e+00  5.09651e+00  5.40872e+00
       O  8.06889e+00  5.50238e+00  8.74465e+00
       H  8.63829e+00  4.85838e+00  8.54568e+00
       H  7.49950e+00  5.55001e+00  7.98952e+00
       O  6.99890e+00  4.46520e+00  1.10074e+01
       H  7.43124e+00  4.76048e+00  1.02105e+01
       H  7.75827e+00  4.12864e+00  1.16911e+01
       O  5.38332e+00  5.80031e+00  1.36925e+01
       H  6.07337e+00  5.40978e+00  1.42560e+01
       H  5.96330e+00  5.68230e+00  1.28818e+01
       O  6.76923e+00  4.09424e+00  1.54377e+01
       H  6.45543e+00  3.19517e+00  1.55975e+01
       H  7.63444e+00  3.94237e+00  1.56726e+01
       O  8.03291e+00  1.03179e+01  1.89340e+00
       H  7.87574e+00  9.31140e+00  2.15904e+00
       H  8.86584e+00  1.03608e+01  1.38962e+00
       O  6.62371e+00  5.87016e+00  4.07519e+00
       H  6.46866e+00  6.76183e+00  3.99793e+00
       H  5.90033e+00  5.49974e+00  3.73440e+00
       O  8.60760e+00  8.61024e+00  5.69289e+00
       H  8.73513e+00  8.35835e+00  6.75653e+00
       H  9.37967e+00  8.98384e+00  5.44629e+00
       O  7.44499e+00  9.73633e+00  9.99986e+00
       H  8.20913e+00  9.27277e+00  9.60721e+00
       H  7.91543e+00  9.90038e+00  1.09397e+01
       O  7.46087e+00  8.19166e+00  1.34993e+01
       H  7.24867e+00  8.92828e+00  1.42550e+01
       H  6.65017e+00  8.13822e+00  1.29352e+01
       O  7.04282e+00  9.29976e+00  1.60298e+01
       H  7.90432e+00  8.96109e+00  1.63040e+01
       H  7.39208e+00  1.03158e+01  1.58817e+01
       O  9.72151e+00  1.23071e+01  4.89489e-01
       H  1.03078e+01  1.24251e+01  1.22822e+00
       H  1.01004e+01  1.28722e+01 -1.95266e-01
       O  6.40304e+00  1.14990e+01  6.00881e+00
       H  6.95392e+00  1.17938e+01  6.74331e+00
       H  7.12643e+00  1.17668e+01  5.42089e+00
       O  6.43638e+00  1.23245e+01  1.24870e+01
       H  5.99240e+00  1.20314e+01  1.32024e+01
       H  7.34604e+00  1.21033e+01  1.26156e+01
       O  1.06751e+01  1.41613e+01  1.19742e+01
       H  1.06926e+01  1.40401e+01  1.10027e+01
       H  1.14069e+01  1.36221e+01  1.23769e+01
       O  8.83779e+00  1.12000e+01  1.19621e+01
       H  9.54001e+00  1.09466e+01  1.26198e+01
       H  9.05105e+00  1.21002e+01  1.16149e+01
       O  6.02786e+00  1.40026e+01  1.78359e+01
       H  5.20763e+00  1.43894e+01  1.80174e+01
       H  6.23159e+00  1.35152e+01  1.86498e+01
       O  5.23780e+00  1.37528e+01  2.40934e+00
       H  4.71074e+00  1.38279e+01  3.19570e+00
       H  5.44365e+00  1.47143e+01  2.31568e+00
       O  7.57147e+00  1.42666e+01  5.75586e+00
       H  8.09747e+00  1.45021e+01  6.44167e+00
       H  8.18267e+00  1.38385e+01  5.09756e+00
       O  7.10844e+00  1.21499e+01  8.94521e+00
       H  7.09574e+00  1.27696e+01  9.59504e+00
       H  7.20951e+00  1.12138e+01  9.27118e+00
       O  8.68327e+00  1.41650e+01  1.42216e+01
       H  9.30823e+00  1.42809e+01  1.34575e+01
       H  7.80589e+00  1.46598e+01  1.38803e+01
       O  7.62280e+00  1.20298e+01  1.58182e+01
       H  8.16150e+00  1.22129e+01  1.50784e+01
       H  6.78723e+00  1.23081e+01  1.55663e+01
       O  3.65397e+00  1.55620e+01  3.96354e-01
       H  4.45991e+00  1.61309e+01  8.29221e-01
       H  3.36186e+00  1.63061e+01 -2.34955e-01
       O  4.86261e+00  1.80762e+01  3.44441e+00
       H  5.39655e+00  1.80942e+01  4.23448e+00
       H  5.23356e+00  1.88874e+01  3.06129e+00
       O  7.54395e+00  1.71009e+01  4.95786e+00
       H  8.32555e+00  1.73925e+01  5.01978e+00
       H  7.80748e+00  1.62299e+01  5.33940e+00
       O  7.78631e+00  1.63204e+01  8.73989e+00
       H  7.27513e+00  1.56377e+01  9.14365e+00
       H  6.99466e+00  1.68982e+01  8.79175e+00
       O  9.74162e+00  1.78021e+01  1.09069e+01
       H  1.03724e+01  1.70787e+01  1.11736e+01
       H  9.18652e+00  1.72803e+01  1.03285e+01
       O  8.49964e+00  1.51546e+01  1.70432e+01
       H  7.75139e+00  1.47947e+01  1.75967e+01
       H  8.33560e+00  1.48244e+01  1.61515e+01
       O  8.57267e+00  1.63489e+01  7.79478e-01
       H  8.79810e+00  1.58584e+01 -6.87930e-02
       H  9.08439e+00  1.57869e+01  1.54890e+00
       O  1.07307e+01  1.86747e+00  3.20046e+00
       H  1.11006e+01  1.91086e+00  2.42099e+00
       H  1.12778e+01  2.38818e+00  3.83706e+00
       O  1.22129e+01  3.05759e+00  5.50768e+00
       H  1.30442e+01  3.31212e+00  5.73522e+00
       H  1.18229e+01  4.02651e+00  5.38597e+00
       O  1.03618e+01  1.07476e+00  6.40834e+00
       H  1.00750e+01  5.72570e-01  5.52461e+00
       H  1.11873e+01  1.58277e+00  6.27128e+00
       O  1.16445e+01  1.70554e+00  1.22653e+01
       H  1.13397e+01  2.16433e+00  1.29934e+01
       H  1.09296e+01  9.47756e-01  1.20181e+01
       O  8.80022e+00  3.39838e+00  1.25902e+01
       H  8.58273e+00  2.54217e+00  1.29151e+01
       H  9.03094e+00  3.77198e+00  1.33787e+01
       O  1.14704e+01  2.94434e+00  1.49006e+01
       H  1.09317e+01  3.55448e+00  1.54440e+01
       H  1.23896e+01  3.08404e+00  1.53440e+01
       O  8.07366e+00  2.78612e+00  2.97715e+00
       H  8.95050e+00  2.39135e+00  2.90518e+00
       H  8.01386e+00  3.25444e+00  3.68942e+00
       O  1.06560e+01  5.86434e+00  5.52302e+00
       H  1.05947e+01  5.79290e+00  4.62130e+00
       H  1.11260e+01  6.64382e+00  5.74316e+00
       O  1.22182e+01  7.74028e+00  6.58138e+00
       H  1.30791e+01  8.07207e+00  6.73960e+00
       H  1.23214e+01  6.99996e+00  7.22486e+00
       O  1.27442e+01  6.69356e+00  1.19414e+01
       H  1.18520e+01  6.70097e+00  1.21933e+01
       H  1.31770e+01  7.32963e+00  1.24701e+01
       O  9.45375e+00  4.18526e+00  1.58944e+01
       H  9.26536e+00  4.25723e+00  1.69241e+01
       H  9.56647e+00  5.07058e+00  1.55144e+01
       O  9.96123e+00  4.49060e+00  5.50344e-02
       H  1.05820e+01  5.39285e+00 -3.01631e-02
       H  9.03676e+00  4.76154e+00  4.12229e-01
       O  1.06481e+01  4.83827e+00  2.82739e+00
       H  1.02518e+01  4.66681e+00  2.02199e+00
       H  1.16408e+01  4.64406e+00  2.71362e+00
       O  8.68539e+00  7.65137e+00  3.09833e+00
       H  8.22130e+00  6.88301e+00  2.77236e+00
       H  8.47001e+00  7.79213e+00  4.09424e+00
       O  9.29288e+00  7.97258e+00  8.28374e+00
       H  9.30029e+00  7.08992e+00  8.49594e+00
       H  1.00427e+01  8.37582e+00  8.67851e+00
       O  1.39565e+01  9.02088e+00  1.31326e+01
       H  1.48080e+01  9.04787e+00  1.35639e+01
       H  1.35623e+01  9.92260e+00  1.31866e+01
       O  1.04692e+01  6.85814e+00  1.51906e+01
       H  1.14630e+01  6.90841e+00  1.52779e+01
       H  1.03428e+01  7.44552e+00  1.43635e+01
       O  9.46751e+00  8.85472e+00  1.71977e+01
       H  9.69823e+00  8.06466e+00  1.65511e+01
       H  9.86016e+00  9.70246e+00  1.67712e+01
       O  1.25590e+01  1.21838e+01  8.80022e-01
       H  1.31236e+01  1.27278e+01  1.46900e+00
       H  1.30670e+01  1.19689e+01  1.04777e-01
       O  1.10011e+01  9.75803e+00  4.99702e+00
       H  1.09889e+01  9.13201e+00  4.17045e+00
       H  1.15869e+01  9.17858e+00  5.49551e+00
       O  1.14165e+01  9.25690e+00  9.43946e+00
       H  1.08995e+01  1.00306e+01  9.11137e+00
       H  1.19266e+01  8.92934e+00  8.59966e+00
       O  1.01433e+01  7.80431e+00  1.27696e+01
       H  1.04306e+01  8.67321e+00  1.25479e+01
       H  9.22303e+00  7.77626e+00  1.29135e+01
       O  1.17207e+01  1.06883e+01  1.32173e+01
       H  1.14509e+01  1.10725e+01  1.40158e+01
       H  1.19890e+01  1.14604e+01  1.29177e+01
       O  1.08825e+01  1.10027e+01  1.56636e+01
       H  1.17816e+01  1.08000e+01  1.59886e+01
       H  1.08735e+01  1.18578e+01  1.61912e+01
       O  1.10079e+01  1.40481e+01  5.08804e+00
       H  1.06359e+01  1.48085e+01  4.41228e+00
       H  1.12593e+01  1.45730e+01  5.99293e+00
       O  8.61659e+00  1.24828e+01  4.11647e+00
       H  8.51605e+00  1.16276e+01  3.55184e+00
       H  9.47280e+00  1.21557e+01  4.31491e+00
       O  9.77337e+00  1.57684e+01  7.17988e+00
       H  1.04311e+01  1.65188e+01  7.14707e+00
       H  8.92828e+00  1.60568e+01  7.61804e+00
       O  9.94324e+00  1.14895e+01  8.49859e+00
       H  1.05190e+01  1.22187e+01  8.72349e+00
       H  9.10238e+00  1.18144e+01  8.37105e+00
       O  1.15080e+01  1.38031e+01  8.65152e+00
       H  1.09979e+01  1.42989e+01  8.09641e+00
       H  1.20150e+01  1.44614e+01  9.10502e+00
       O  1.09905e+01  1.38703e+01  1.69601e+01
       H  1.13710e+01  1.45016e+01  1.76364e+01
       H  1.00485e+01  1.41343e+01  1.70104e+01
       O  1.04883e+01  1.54419e+01  2.94170e+00
       H  1.11080e+01  1.56155e+01  2.17439e+00
       H  1.02824e+01  1.64140e+01  3.29201e+00
       O  1.01814e+01  1.79216e+01  4.22971e+00
       H  1.01110e+01  1.85418e+01  3.49469e+00
       H  1.09524e+01  1.78179e+01  4.79593e+00
       O  1.19123e+01  1.85085e+01  8.35730e+00
       H  1.25500e+01  1.91366e+01  8.78593e+00
       H  1.14826e+01  1.91298e+01  7.65561e+00
       O  1.19710e+01  1.60256e+01  1.00909e+01
       H  1.16678e+01  1.65902e+01  9.37967e+00
       H  1.29177e+01  1.62844e+01  1.03592e+01
       O  9.86333e+00  1.77862e+01  1.50122e+01
       H  9.64478e+00  1.70178e+01  1.54006e+01
       H  1.05338e+01  1.74671e+01  1.43714e+01
       O  1.19171e+01  7.01160e-01  1.68945e+01
       H  1.20668e+01  1.41184e+00  1.62965e+01
       H  1.11365e+01  2.24900e-01  1.64691e+01
       O  1.15117e+01  2.00505e+00  6.13316e-01
       H  1.16869e+01  1.47376e+00 -9.52519e-02
       H  1.10333e+01  2.73849e+00  3.22798e-01
       O  1.50588e+01  2.93111e+00  6.42051e+00
       H  1.56049e+01  2.32309e+00  5.91726e+00
       H  1.54313e+01  3.77356e+00  6.66075e+00
       O  1.19038e+01  3.15707e+00  9.16747e+00
       H  1.28998e+01  2.84644e+00  9.20398e+00
       H  1.15922e+01  2.90571e+00  9.97869e+00
       O  1.48847e+01  1.74840e+00  1.17938e+01
       H  1.48821e+01  1.58700e+00  1.08434e+01
       H  1.40407e+01  1.77539e+00  1.21055e+01
       O  1.50170e+01  5.53255e+00  1.44285e+01
       H  1.58854e+01  5.44629e+00  1.48440e+01
       H  1.51530e+01  5.31241e+00  1.34744e+01
       O  1.43042e+01  4.42022e+00  1.84185e+01
       H  1.38200e+01  5.28331e+00  1.82942e+01
       H  1.51794e+01  4.73667e+00  1.83831e+01
       O  1.32035e+01  4.31809e+00  2.35696e+00
       H  1.37216e+01  5.08857e+00  2.73055e+00
       H  1.37306e+01  4.23024e+00  1.44148e+00
       O  1.42544e+01  6.58085e+00  3.63492e+00
       H  1.34898e+01  7.02959e+00  3.54972e+00
       H  1.46524e+01  7.05499e+00  4.37418e+00
       O  1.23642e+01  5.93419e+00  8.96056e+00
       H  1.17726e+01  5.15630e+00  8.88436e+00
       H  1.23108e+01  6.36865e+00  9.81042e+00
       O  1.49868e+01  4.63506e+00  1.17255e+01
       H  1.46381e+01  3.64868e+00  1.18970e+01
       H  1.42724e+01  5.13831e+00  1.15900e+01
       O  1.43254e+01  3.23274e+00  1.56398e+01
       H  1.46005e+01  4.05509e+00  1.52705e+01
       H  1.44487e+01  3.34440e+00  1.65426e+01
       O  1.18927e+01  6.19349e+00  1.83307e+01
       H  1.20398e+01  7.04017e+00  1.88302e+01
       H  1.20864e+01  6.39775e+00  1.74787e+01
       O  1.14599e+01  7.92231e+00  2.97133e+00
       H  1.14779e+01  8.39275e+00  2.10454e+00
       H  1.05645e+01  7.52755e+00  3.05547e+00
       O  1.51022e+01  1.13731e+01  5.19652e+00
       H  1.44402e+01  1.17377e+01  4.59749e+00
       H  1.48514e+01  1.18642e+01  6.13951e+00
       O  1.50096e+01  8.47742e+00  5.87863e+00
       H  1.58928e+01  8.81027e+00  6.39722e+00
       H  1.50583e+01  9.22885e+00  5.33516e+00
       O  2.85756e-02  7.24232e+00  9.57970e+00
       H -9.07010e-01  6.84120e+00  9.97023e+00
       H  5.33411e-01  6.57714e+00  9.19869e+00
       O  1.30368e+01  6.82321e+00  1.58526e+01
       H  1.37089e+01  7.36297e+00  1.65013e+01
       H  1.35686e+01  6.14322e+00  1.54319e+01
       O  1.14027e+01  9.12831e+00  3.96354e-01
       H  1.15588e+01  1.00681e+01  4.78905e-01
       H  1.07873e+01  8.84573e+00 -3.68837e-01
       O  1.38089e+01  1.44328e+01  2.39188e+00
       H  1.47582e+01  1.40010e+01  2.38394e+00
       H  1.35723e+01  1.42719e+01  3.26238e+00
       O  1.24939e+01  1.19144e+01  4.23765e+00
       H  1.19875e+01  1.12117e+01  4.62448e+00
       H  1.17932e+01  1.27505e+01  4.46837e+00
       O  1.44756e+01  1.00168e+01  9.62044e+00
       H  1.43936e+01  1.07682e+01  9.07804e+00
       H  1.35358e+01  9.69558e+00  9.93266e+00
       O  1.41634e+01  1.25060e+01  7.64344e+00
       H  1.45212e+01  1.33871e+01  7.22380e+00
       H  1.32749e+01  1.28357e+01  7.80483e+00
       O  1.66574e+01  1.09905e+01  1.11053e+01
       H  1.61082e+01  1.19112e+01  1.11842e+01
       H  1.61754e+01  1.04015e+01  1.06063e+01
       O  1.31299e+01  1.08016e+01  1.72872e+01
       H  1.38867e+01  1.13657e+01  1.68670e+01
       H  1.36459e+01  1.00665e+01  1.75465e+01
       O  1.16975e+01  1.53864e+01  4.91076e-01
       H  1.23277e+01  1.47762e+01  9.20239e-01
       H  1.19716e+01  1.64013e+01  4.66734e-01
       O  1.56488e+01  1.65400e+01  4.56468e+00
       H  1.62960e+01  1.59827e+01  4.09371e+00
       H  1.49635e+01  1.66791e+01  3.84183e+00
       O  1.68368e+01  1.84381e+01  9.67495e+00
       H  1.71655e+01  1.81979e+01  8.71767e+00
       H  1.73268e+01  1.92737e+01  9.70564e+00
       O  1.47720e+01  1.35475e+01  1.00718e+01
       H  1.55356e+01  1.40555e+01  1.01549e+01
       H  1.48953e+01  1.29273e+01  9.27648e+00
       O  1.29902e+01  1.30463e+01  1.27135e+01
       H  1.35088e+01  1.35655e+01  1.20779e+01
       H  1.33882e+01  1.33353e+01  1.35707e+01
       O  1.51027e+01  1.21298e+01  1.60711e+01
       H  1.45069e+01  1.27511e+01  1.57594e+01
       H  1.57028e+01  1.26547e+01  1.68665e+01
       O  1.32130e+01  1.77925e+01  5.36586e-01
       H  1.40343e+01  1.74935e+01  8.03291e-01
       H  1.32241e+01  1.81624e+01 -3.61428e-01
       O  1.22108e+01  1.70242e+01  5.99240e+00
       H  1.23383e+01  1.73438e+01  6.93063e+00
       H  1.29437e+01  1.75703e+01  5.64209e+00
       O  1.45508e+01  1.44783e+00  9.11455e+00
       H  1.50270e+01  1.80714e+00  8.31602e+00
       H  1.49408e+01  6.52476e-01  9.21403e+00
       O  1.39539e+01  1.74946e+01  1.16826e+01
       H  1.38486e+01  1.83868e+01  1.17816e+01
       H  1.46011e+01  1.71475e+01  1.23409e+01
       O  1.59923e+01  1.63780e+01  1.36755e+01
       H  1.60367e+01  1.53662e+01  1.38687e+01
       H  1.60674e+01  1.69226e+01  1.45069e+01
       O  1.32151e+01  1.41460e+01  1.51382e+01
       H  1.34332e+01  1.50122e+01  1.54774e+01
       H  1.23457e+01  1.40745e+01  1.54700e+01
       O  1.70210e+01  2.57021e+00  1.19488e+00
       H  1.71543e+01  3.27825e+00  6.12258e-01
       H  1.72591e+01  1.97224e+00  5.88445e-01
       O  1.48524e+01  1.86958e+00  2.76072e+00
       H  1.42666e+01  2.35325e+00  2.20032e+00
       H  1.58092e+01  2.04421e+00  2.35378e+00
       O  1.76105e+01  1.47217e+00  6.89412e+00
       H  1.78375e+01  2.09290e+00  6.25329e+00
       H  1.78100e+01  1.87593e+00  7.74239e+00
       O  1.81391e+01  2.61625e+00  9.25637e+00
       H  1.76946e+01  3.47299e+00  9.45957e+00
       H  1.84715e+01  2.35590e+00  1.00517e+01
       O  1.71258e+01  1.00967e+00  1.38073e+01
       H  1.69024e+01  8.90605e-01  1.28421e+01
       H  1.79126e+01  7.35556e-01  1.42370e+01
       O  1.48074e+01  2.21196e-01  1.49445e+01
       H  1.45608e+01  1.10069e+00  1.49805e+01
       H  1.56599e+01  9.31352e-02  1.44460e+01
       O  1.52641e+01  7.76409e+00  1.44148e+00
       H  1.47974e+01  7.37144e+00  2.19026e+00
       H  1.60796e+01  8.31549e+00  1.78809e+00
       O  1.48609e+01  5.61880e+00  7.56618e+00
       H  1.51466e+01  6.43479e+00  7.03435e+00
       H  1.40158e+01  5.82889e+00  8.13822e+00
       O  1.79216e+01  5.58017e+00  7.04123e+00
       H  1.86085e+01  5.08645e+00  7.30794e+00
       H  1.77883e+01  5.43465e+00  6.09242e+00
       O  1.68225e+01  5.13090e+00  9.64320e+00
       H  1.61314e+01  4.93934e+00  1.02772e+01
       H  1.63167e+01  5.34257e+00  8.95844e+00
       O  1.59499e+01  7.94083e+00  1.13942e+01
       H  1.51159e+01  8.25199e+00  1.16943e+01
       H  1.63738e+01  7.54236e+00  1.22118e+01
       O  1.73560e+01  5.67913e+00  1.62352e+01
       H  1.80307e+01  5.04200e+00  1.62981e+01
       H  1.74581e+01  6.09189e+00  1.53371e+01
       O  1.78079e+01  8.60707e+00  2.69140e+00
       H  1.87323e+01  8.59331e+00  2.50301e+00
       H  1.77290e+01  9.49291e+00  2.97980e+00
       O  1.69056e+01  5.71458e+00  4.20325e+00
       H  1.58192e+01  5.58229e+00  4.03180e+00
       H  1.70771e+01  6.56921e+00  3.74393e+00
       O  1.74099e-01  8.21071e+00  6.21572e+00
       H -2.36013e-01  7.54025e+00  6.84702e+00
       H -3.62486e-01  9.00554e+00  6.31573e+00
       O  2.25535e+00  1.01417e+01  7.57147e+00
       H  1.89393e+00  9.36167e+00  7.89532e+00
       H  3.02848e+00  1.01512e+01  8.04561e+00
       O  1.74602e+01  7.16823e+00  1.37311e+01
       H  1.70220e+01  7.96941e+00  1.41751e+01
       H  1.82169e+01  7.30265e+00  1.32331e+01
       O  9.38231e-01  7.15659e+00  1.80116e+01
       H  1.20123e-01  7.62491e+00  1.76989e+01
       H  1.14673e+00  7.76303e+00  1.87916e+01
       O  1.74782e+01  1.08635e+01  3.83495e+00
       H  1.81973e+01  1.13318e+01  4.23501e+00
       H  1.66432e+01  1.10233e+01  4.32973e+00
       O  1.07793e+00  1.28325e+01  5.42460e+00
       H  1.98071e+00  1.32337e+01  5.22615e+00
       H  1.00226e+00  1.32522e+01  6.29880e+00
       O  1.73321e+01  1.01914e+01  7.39578e+00
       H  1.73528e+01  1.10524e+01  7.29841e+00
       H  1.81688e+01  9.94800e+00  7.92496e+00
       O  2.09554e-01  9.88133e+00  9.89508e+00
       H -6.40834e-01  1.00279e+01  1.01216e+01
       H  2.48184e-01  8.98384e+00  9.75591e+00
       O  1.63278e+01  9.72099e+00  1.47953e+01
       H  1.57478e+01  1.04147e+01  1.51821e+01
       H  1.69882e+01  1.03068e+01  1.41624e+01
       O  1.46704e+01  8.46260e+00  1.75110e+01
       H  1.55525e+01  8.69068e+00  1.70353e+01
       H  1.47117e+01  8.39222e+00  1.84175e+01
       O  1.64405e+01  1.47614e+01  1.77169e+00
       H  1.72073e+01  1.47244e+01  2.43951e+00
       H  1.66844e+01  1.55890e+01  1.22981e+00
       O  1.85418e+01  1.48212e+01  3.52591e+00
       H  1.90324e+01  1.42529e+01  4.06567e+00
       H  1.90795e+01  1.49948e+01  2.82369e+00
       O  1.55345e+01  1.49207e+01  6.89253e+00
       H  1.54573e+01  1.55234e+01  7.72017e+00
       H  1.52795e+01  1.56790e+01  6.27975e+00