3
# CELL(abcABC):   35.23300    35.23300    35.23300    90.00000    90.00000    90.00000  cell{atomic_unit}  Traj: positions{atomic_unit} Step:           0  Bead:       0 
       O  0.00000e+00 -3.77945e-02  0.00000e+00
       H  1.41729e+00  9.44863e-01  0.00000e+00
       H -1.41729e+00  9.44863e-01  0.00000e+00
3
# CELL(abcABC):   35.23300    35.23300    35.23300    90.00000    90.00000    90.00000  cell{atomic_unit}  Traj: positions{atomic_unit} Step:           1  Bead:       0 
       O -9.81737e-20 -8.07242e-02 -1.05259e-20
       H  1.44080e+00  9.66328e-01 -2.27086e-21
       H -1.44080e+00  9.66328e-01  3.61155e-21
3
# CELL(abcABC):   35.23300    35.23300    35.23300    90.00000    90.00000    90.00000  cell{atomic_unit}  Traj: positions{atomic_unit} Step:           2  Bead:       0 
       O -9.80166e-18 -8.54272e-02  5.38645e-20
       H  1.43436e+00  9.68679e-01  8.72476e-21
       H -1.43436e+00  9.68679e-01  1.36132e-20
3
# CELL(abcABC):   35.23300    35.23300    35.23300    90.00000    90.00000    90.00000  cell{atomic_unit}  Traj: positions{atomic_unit} Step:           3  Bead:       0 
       O -9.80170e-18 -8.54272e-02  5.38348e-20
       H  1.43436e+00  9.68679e-01  8.72841e-21
       H -1.43436e+00  9.68679e-01  1.36062e-20
3
# CELL(abcABC):   35.23300    35.23300    35.23300    90.00000    90.00000    90.00000  cell{atomic_unit}  Traj: positions{atomic_unit} Step:           4  Bead:       0 
       O -9.80168e-18 -8.54272e-02  5.38346e-20
       H  1.43436e+00  9.68679e-01  8.72841e-21
       H -1.43436e+00  9.68679e-01  1.36061e-20
3
# CELL(abcABC):   35.23300    35.23300    35.23300    90.00000    90.00000    90.00000  cell{atomic_unit}  Traj: positions{atomic_unit} Step:           5  Bead:       0 
       O -9.80168e-18 -8.54272e-02  5.38350e-20
       H  1.43436e+00  9.68679e-01  8.72837e-21
       H -1.43436e+00  9.68679e-01  1.36062e-20
3
# CELL(abcABC):   35.23300    35.23300    35.23300    90.00000    90.00000    90.00000  cell{atomic_unit}  Traj: positions{atomic_unit} Step:           6  Bead:       0 
       O -9.83541e-18 -8.54271e-02  5.35323e-20
       H  1.43436e+00  9.68679e-01  8.55121e-21
       H -1.43436e+00  9.68679e-01  1.34828e-20
3
# CELL(abcABC):   35.23300    35.23300    35.23300    90.00000    90.00000    90.00000  cell{atomic_unit}  Traj: positions{atomic_unit} Step:           7  Bead:       0 
       O -9.83538e-18 -8.54271e-02  5.35323e-20
       H  1.43436e+00  9.68679e-01  8.55123e-21
       H -1.43436e+00  9.68679e-01  1.34828e-20
3
# CELL(abcABC):   35.23300    35.23300    35.23300    90.00000    90.00000    90.00000  cell{atomic_unit}  Traj: positions{atomic_unit} Step:           8  Bead:       0 
       O -9.83538e-18 -8.54271e-02  5.35321e-20
       H  1.43436e+00  9.68679e-01  8.55141e-21
       H -1.43436e+00  9.68679e-01  1.34827e-20
3
# CELL(abcABC):   35.23300    35.23300    35.23300    90.00000    90.00000    90.00000  cell{atomic_unit}  Traj: positions{atomic_unit} Step:           9  Bead:       0 
       O -9.83414e-18 -8.54270e-02  5.37880e-20
       H  1.43436e+00  9.68679e-01  8.62189e-21
       H -1.43436e+00  9.68679e-01  1.35324e-20
3
# CELL(abcABC):   35.23300    35.23300    35.23300    90.00000    90.00000    90.00000  cell{atomic_unit}  Traj: positions{atomic_unit} Step:          10  Bead:       0 
       O -9.83411e-18 -8.54270e-02  5.37877e-20
       H  1.43436e+00  9.68679e-01  8.62186e-21
       H -1.43436e+00  9.68679e-01  1.35324e-20
3
# CELL(abcABC):   35.23300    35.23300    35.23300    90.00000    90.00000    90.00000  cell{atomic_unit}  Traj: positions{atomic_unit} Step:          11  Bead:       0 
       O -9.83411e-18 -8.54270e-02  5.37875e-20
       H  1.43436e+00  9.68679e-01  8.62207e-21
       H -1.43436e+00  9.68679e-01  1.35323e-20
3
# CELL(abcABC):   35.23300    35.23300    35.23300    90.00000    90.00000    90.00000  cell{atomic_unit}  Traj: positions{atomic_unit} Step:          12  Bead:       0 
       O -1.04017e-17 -8.54261e-02  5.49496e-20
       H  1.43436e+00  9.68679e-01  8.33851e-21
       H -1.43436e+00  9.68679e-01  1.32291e-20
3
# CELL(abcABC):   35.23300    35.23300    35.23300    90.00000    90.00000    90.00000  cell{atomic_unit}  Traj: positions{atomic_unit} Step:          13  Bead:       0 
       O -1.04017e-17 -8.54261e-02  5.49492e-20
       H  1.43436e+00  9.68679e-01  8.33860e-21
       H -1.43436e+00  9.68679e-01  1.32289e-20
3
# CELL(abcABC):   35.23300    35.23300    35.23300    90.00000    90.00000    90.00000  cell{atomic_unit}  Traj: positions{atomic_unit} Step:          14  Bead:       0 
       O -1.04018e-17 -8.54261e-02  5.49493e-20
       H  1.43436e+00  9.68679e-01  8.33853e-21
       H -1.43436e+00  9.68679e-01  1.32291e-20
3
# CELL(abcABC):   35.23300    35.23300    35.23300    90.00000    90.00000    90.00000  cell{atomic_unit}  Traj: positions{atomic_unit} Step:          15  Bead:       0 
       O -1.04496e-17 -8.54260e-02  5.45069e-20
       H  1.43436e+00  9.68679e-01  8.14797e-21
       H -1.43436e+00  9.68679e-01  1.31325e-20
3
# CELL(abcABC):   35.23300    35.23300    35.23300    90.00000    90.00000    90.00000  cell{atomic_unit}  Traj: positions{atomic_unit} Step:          16  Bead:       0 
       O -1.04495e-17 -8.54260e-02  5.45070e-20
       H  1.43436e+00  9.68679e-01  8.14795e-21
       H -1.43436e+00  9.68679e-01  1.31325e-20
3
# CELL(abcABC):   35.23300    35.23300    35.23300    90.00000    90.00000    90.00000  cell{atomic_unit}  Traj: positions{atomic_unit} Step:          17  Bead:       0 
       O -1.04495e-17 -8.54260e-02  5.45070e-20
       H  1.43436e+00  9.68679e-01  8.14782e-21
       H -1.43436e+00  9.68679e-01  1.31326e-20
3
# CELL(abcABC):   35.23300    35.23300    35.23300    90.00000    90.00000    90.00000  cell{atomic_unit}  Traj: positions{atomic_unit} Step:          18  Bead:       0 
       O -1.04536e-17 -8.54257e-02  5.38626e-20
       H  1.43436e+00  9.68679e-01  7.82553e-21
       H -1.43436e+00  9.68679e-01  1.36763e-20
3
# CELL(abcABC):   35.23300    35.23300    35.23300    90.00000    90.00000    90.00000  cell{atomic_unit}  Traj: positions{atomic_unit} Step:          19  Bead:       0 
       O -1.04536e-17 -8.54257e-02  5.38629e-20
       H  1.43436e+00  9.68679e-01  7.82571e-21
       H -1.43436e+00  9.68679e-01  1.36764e-20
3
# CELL(abcABC):   35.23300    35.23300    35.23300    90.00000    90.00000    90.00000  cell{atomic_unit}  Traj: positions{atomic_unit} Step:          20  Bead:       0 
       O -1.04536e-17 -8.54257e-02  5.38628e-20
       H  1.43436e+00  9.68679e-01  7.82594e-21
       H -1.43436e+00  9.68679e-01  1.36764e-20
3
# CELL(abcABC):   35.23300    35.23300    35.23300    90.00000    90.00000    90.00000  cell{atomic_unit}  Traj: positions{atomic_unit} Step:          21  Bead:       0 
       O -1.05628e-17 -8.54256e-02  5.35503e-20
       H  1.43436e+00  9.68679e-01  7.69647e-21
       H -1.43436e+00  9.68679e-01  1.34139e-20
3
# CELL(abcABC):   35.23300    35.23300    35.23300    90.00000    90.00000    90.00000  cell{atomic_unit}  Traj: positions{atomic_unit} Step:          22  Bead:       0 
       O -1.05628e-17 -8.54256e-02  5.35503e-20
       H  1.43436e+00  9.68679e-01  7.69649e-21
       H -1.43436e+00  9.68679e-01  1.34139e-20
3
# CELL(abcABC):   35.23300    35.23300    35.23300    90.00000    90.00000    90.00000  cell{atomic_unit}  Traj: positions{atomic_unit} Step:          23  Bead:       0 
       O -1.05628e-17 -8.54256e-02  5.35497e-20
       H  1.43436e+00  9.68679e-01  7.69631e-21
       H -1.43436e+00  9.68679e-01  1.34139e-20
3
# CELL(abcABC):   35.23300    35.23300    35.23300    90.00000    90.00000    90.00000  cell{atomic_unit}  Traj: positions{atomic_unit} Step:          24  Bead:       0 
       O -1.05654e-17 -8.54254e-02  5.29045e-20
       H  1.43436e+00  9.68679e-01  7.56381e-21
       H -1.43436e+00  9.68679e-01  1.32972e-20
3
# CELL(abcABC):   35.23300    35.23300    35.23300    90.00000    90.00000    90.00000  cell{atomic_unit}  Traj: positions{atomic_unit} Step:          25  Bead:       0 
       O -1.05654e-17 -8.54254e-02  5.29049e-20
       H  1.43436e+00  9.68679e-01  7.56377e-21
       H -1.43436e+00  9.68679e-01  1.32972e-20
3
# CELL(abcABC):   35.23300    35.23300    35.23300    90.00000    90.00000    90.00000  cell{atomic_unit}  Traj: positions{atomic_unit} Step:          26  Bead:       0 
       O -1.05655e-17 -8.54254e-02  5.29048e-20
       H  1.43436e+00  9.68679e-01  7.56385e-21
       H -1.43436e+00  9.68679e-01  1.32972e-20
3
# CELL(abcABC):   35.23300    35.23300    35.23300    90.00000    90.00000    90.00000  cell{atomic_unit}  Traj: positions{atomic_unit} Step:          27  Bead:       0 
       O -1.06200e-17 -8.54253e-02  5.26721e-20
       H  1.43436e+00  9.68678e-01  7.60611e-21
       H -1.43436e+00  9.68678e-01  1.34012e-20
3
# CELL(abcABC):   35.23300    35.23300    35.23300    90.00000    90.00000    90.00000  cell{atomic_unit}  Traj: positions{atomic_unit} Step:          28  Bead:       0 
       O -1.06200e-17 -8.54253e-02  5.26718e-20
       H  1.43436e+00  9.68678e-01  7.60615e-21
       H -1.43436e+00  9.68678e-01  1.34012e-20
3
# CELL(abcABC):   35.23300    35.23300    35.23300    90.00000    90.00000    90.00000  cell{atomic_unit}  Traj: positions{atomic_unit} Step:          29  Bead:       0 
       O -1.06200e-17 -8.54253e-02  5.26719e-20
       H  1.43436e+00  9.68678e-01  7.60626e-21
       H -1.43436e+00  9.68678e-01  1.34013e-20
3
# CELL(abcABC):   35.23300    35.23300    35.23300    90.00000    90.00000    90.00000  cell{atomic_unit}  Traj: positions{atomic_unit} Step:          30  Bead:       0 
       O -1.06227e-17 -8.54253e-02  5.26891e-20
       H  1.43436e+00  9.68678e-01  7.61529e-21
       H -1.43436e+00  9.68678e-01  1.33996e-20
3
# CELL(abcABC):   35.23300    35.23300    35.23300    90.00000    90.00000    90.00000  cell{atomic_unit}  Traj: positions{atomic_unit} Step:          31  Bead:       0 
       O -1.06227e-17 -8.54253e-02  5.26890e-20
       H  1.43436e+00  9.68678e-01  7.61525e-21
       H -1.43436e+00  9.68678e-01  1.33996e-20
3
# CELL(abcABC):   35.23300    35.23300    35.23300    90.00000    90.00000    90.00000  cell{atomic_unit}  Traj: positions{atomic_unit} Step:          32  Bead:       0 
       O -1.06227e-17 -8.54253e-02  5.26886e-20
       H  1.43436e+00  9.68678e-01  7.61501e-21
       H -1.43436e+00  9.68678e-01  1.33996e-20
3
# CELL(abcABC):   35.23300    35.23300    35.23300    90.00000    90.00000    90.00000  cell{atomic_unit}  Traj: positions{atomic_unit} Step:          33  Bead:       0 
       O -1.06241e-17 -8.54251e-02  5.23144e-20
       H  1.43436e+00  9.68678e-01  7.22352e-21
       H -1.43436e+00  9.68678e-01  1.30744e-20
3
# CELL(abcABC):   35.23300    35.23300    35.23300    90.00000    90.00000    90.00000  cell{atomic_unit}  Traj: positions{atomic_unit} Step:          34  Bead:       0 
       O -1.06242e-17 -8.54251e-02  5.23150e-20
       H  1.43436e+00  9.68678e-01  7.22393e-21
       H -1.43436e+00  9.68678e-01  1.30746e-20
3
# CELL(abcABC):   35.23300    35.23300    35.23300    90.00000    90.00000    90.00000  cell{atomic_unit}  Traj: positions{atomic_unit} Step:          35  Bead:       0 
       O -1.06216e-17 -8.54224e-02  6.28045e-20
       H  1.43436e+00  9.68677e-01  4.49171e-21
       H -1.43436e+00  9.68677e-01  1.36478e-20
3
# CELL(abcABC):   35.23300    35.23300    35.23300    90.00000    90.00000    90.00000  cell{atomic_unit}  Traj: positions{atomic_unit} Step:          36  Bead:       0 
       O -1.06440e-17 -8.54224e-02  6.24818e-20
       H  1.43436e+00  9.68677e-01  4.37652e-21
       H -1.43436e+00  9.68677e-01  1.35672e-20
3
# CELL(abcABC):   35.23300    35.23300    35.23300    90.00000    90.00000    90.00000  cell{atomic_unit}  Traj: positions{atomic_unit} Step:          37  Bead:       0 
       O -1.06440e-17 -8.54224e-02  6.24823e-20
       H  1.43436e+00  9.68677e-01  4.37644e-21
       H -1.43436e+00  9.68677e-01  1.35675e-20
3
# CELL(abcABC):   35.23300    35.23300    35.23300    90.00000    90.00000    90.00000  cell{atomic_unit}  Traj: positions{atomic_unit} Step:          38  Bead:       0 
       O -1.06441e-17 -8.54224e-02  6.24824e-20
       H  1.43436e+00  9.68677e-01  4.37647e-21
       H -1.43436e+00  9.68677e-01  1.35676e-20
3
# CELL(abcABC):   35.23300    35.23300    35.23300    90.00000    90.00000    90.00000  cell{atomic_unit}  Traj: positions{atomic_unit} Step:          39  Bead:       0 
       O -1.06441e-17 -8.54224e-02  6.24826e-20
       H  1.43436e+00  9.68677e-01  4.37658e-21
       H -1.43436e+00  9.68677e-01  1.35677e-20
3
# CELL(abcABC):   35.23300    35.23300    35.23300    90.00000    90.00000    90.00000  cell{atomic_unit}  Traj: positions{atomic_unit} Step:          40  Bead:       0 
       O -1.09007e-17 -8.54223e-02  6.25785e-20
       H  1.43436e+00  9.68677e-01  4.14151e-21
       H -1.43436e+00  9.68677e-01  1.38812e-20
3
# CELL(abcABC):   35.23300    35.23300    35.23300    90.00000    90.00000    90.00000  cell{atomic_unit}  Traj: positions{atomic_unit} Step:          41  Bead:       0 
       O -1.09007e-17 -8.54223e-02  6.25785e-20
       H  1.43436e+00  9.68677e-01  4.14175e-21
       H -1.43436e+00  9.68677e-01  1.38812e-20
3
# CELL(abcABC):   35.23300    35.23300    35.23300    90.00000    90.00000    90.00000  cell{atomic_unit}  Traj: positions{atomic_unit} Step:          42  Bead:       0 
       O -1.09010e-17 -8.54223e-02  6.25805e-20
       H  1.43436e+00  9.68677e-01  4.14253e-21
       H -1.43436e+00  9.68677e-01  1.38816e-20
3
# CELL(abcABC):   35.23300    35.23300    35.23300    90.00000    90.00000    90.00000  cell{atomic_unit}  Traj: positions{atomic_unit} Step:          43  Bead:       0 
       O -1.09034e-17 -8.54222e-02  6.11694e-20
       H  1.43436e+00  9.68677e-01  3.81994e-21
       H -1.43436e+00  9.68677e-01  1.31540e-20
3
# CELL(abcABC):   35.23300    35.23300    35.23300    90.00000    90.00000    90.00000  cell{atomic_unit}  Traj: positions{atomic_unit} Step:          44  Bead:       0 
       O -1.09033e-17 -8.54222e-02  6.11700e-20
       H  1.43436e+00  9.68677e-01  3.82009e-21
       H -1.43436e+00  9.68677e-01  1.31543e-20
3
# CELL(abcABC):   35.23300    35.23300    35.23300    90.00000    90.00000    90.00000  cell{atomic_unit}  Traj: positions{atomic_unit} Step:          45  Bead:       0 
       O -1.09035e-17 -8.54222e-02  6.11688e-20
       H  1.43436e+00  9.68677e-01  3.82063e-21
       H -1.43436e+00  9.68677e-01  1.31537e-20
3
# CELL(abcABC):   35.23300    35.23300    35.23300    90.00000    90.00000    90.00000  cell{atomic_unit}  Traj: positions{atomic_unit} Step:          46  Bead:       0 
       O -1.09037e-17 -8.54220e-02  6.07016e-20
       H  1.43436e+00  9.68677e-01  3.40054e-21
       H -1.43436e+00  9.68677e-01  1.16629e-20
3
# CELL(abcABC):   35.23300    35.23300    35.23300    90.00000    90.00000    90.00000  cell{atomic_unit}  Traj: positions{atomic_unit} Step:          47  Bead:       0 
       O -1.09037e-17 -8.54220e-02  6.07008e-20
       H  1.43436e+00  9.68677e-01  3.40014e-21
       H -1.43436e+00  9.68677e-01  1.16628e-20
3
# CELL(abcABC):   35.23300    35.23300    35.23300    90.00000    90.00000    90.00000  cell{atomic_unit}  Traj: positions{atomic_unit} Step:          48  Bead:       0 
       O -1.09039e-17 -8.54220e-02  6.06995e-20
       H  1.43436e+00  9.68677e-01  3.39999e-21
       H -1.43436e+00  9.68677e-01  1.16626e-20
3
# CELL(abcABC):   35.23300    35.23300    35.23300    90.00000    90.00000    90.00000  cell{atomic_unit}  Traj: positions{atomic_unit} Step:          49  Bead:       0 
       O -1.11338e-17 -8.54219e-02  6.19202e-20
       H  1.43436e+00  9.68677e-01  3.45814e-21
       H -1.43436e+00  9.68677e-01  1.21321e-20
3
# CELL(abcABC):   35.23300    35.23300    35.23300    90.00000    90.00000    90.00000  cell{atomic_unit}  Traj: positions{atomic_unit} Step:          50  Bead:       0 
       O -1.11338e-17 -8.54219e-02  6.19201e-20
       H  1.43436e+00  9.68677e-01  3.45803e-21
       H -1.43436e+00  9.68677e-01  1.21320e-20
3
# CELL(abcABC):   35.23300    35.23300    35.23300    90.00000    90.00000    90.00000  cell{atomic_unit}  Traj: positions{atomic_unit} Step:          51  Bead:       0 
       O -1.11339e-17 -8.54219e-02  6.19195e-20
       H  1.43436e+00  9.68677e-01  3.45800e-21
       H -1.43436e+00  9.68677e-01  1.21319e-20
3
# CELL(abcABC):   35.23300    35.23300    35.23300    90.00000    90.00000    90.00000  cell{atomic_unit}  Traj: positions{atomic_unit} Step:          52  Bead:       0 
       O -1.40020e-17 -8.54195e-02  6.87030e-20
       H  1.43437e+00  9.68676e-01  1.73871e-20
       H -1.43437e+00  9.68676e-01  1.44214e-20
3
# CELL(abcABC):   35.23300    35.23300    35.23300    90.00000    90.00000    90.00000  cell{atomic_unit}  Traj: positions{atomic_unit} Step:          53  Bead:       0 
       O -1.40019e-17 -8.54195e-02  6.87022e-20
       H  1.43437e+00  9.68676e-01  1.73873e-20
       H -1.43437e+00  9.68676e-01  1.44216e-20
3
# CELL(abcABC):   35.23300    35.23300    35.23300    90.00000    90.00000    90.00000  cell{atomic_unit}  Traj: positions{atomic_unit} Step:          54  Bead:       0 
       O -1.40022e-17 -8.54195e-02  6.87028e-20
       H  1.43437e+00  9.68676e-01  1.73872e-20
       H -1.43437e+00  9.68676e-01  1.44221e-20
3
# CELL(abcABC):   35.23300    35.23300    35.23300    90.00000    90.00000    90.00000  cell{atomic_unit}  Traj: positions{atomic_unit} Step:          55  Bead:       0 
       O -1.41449e-17 -8.54195e-02  6.83145e-20
       H  1.43437e+00  9.68676e-01  1.71437e-20
       H -1.43437e+00  9.68676e-01  1.48564e-20
3
# CELL(abcABC):   35.23300    35.23300    35.23300    90.00000    90.00000    90.00000  cell{atomic_unit}  Traj: positions{atomic_unit} Step:          56  Bead:       0 
       O -1.41449e-17 -8.54195e-02  6.83154e-20
       H  1.43437e+00  9.68676e-01  1.71442e-20
       H -1.43437e+00  9.68676e-01  1.48562e-20
3
# CELL(abcABC):   35.23300    35.23300    35.23300    90.00000    90.00000    90.00000  cell{atomic_unit}  Traj: positions{atomic_unit} Step:          57  Bead:       0 
       O -1.41449e-17 -8.54195e-02  6.83154e-20
       H  1.43437e+00  9.68676e-01  1.71435e-20
       H -1.43437e+00  9.68676e-01  1.48560e-20
3
# CELL(abcABC):   35.23300    35.23300    35.23300    90.00000    90.00000    90.00000  cell{atomic_unit}  Traj: positions{atomic_unit} Step:          58  Bead:       0 
       O -1.77082e-17 -8.54188e-02  4.81059e-20
       H  1.43437e+00  9.68675e-01  4.76903e-21
       H -1.43437e+00  9.68675e-01  1.11678e-20
3
# CELL(abcABC):   35.23300    35.23300    35.23300    90.00000    90.00000    90.00000  cell{atomic_unit}  Traj: positions{atomic_unit} Step:          59  Bead:       0 
       O -1.77090e-17 -8.54188e-02  4.81065e-20
       H  1.43437e+00  9.68675e-01  4.76903e-21
       H -1.43437e+00  9.68675e-01  1.11686e-20
3
# CELL(abcABC):   35.23300    35.23300    35.23300    90.00000    90.00000    90.00000  cell{atomic_unit}  Traj: positions{atomic_unit} Step:          60  Bead:       0 
       O -1.88930e-17 -8.54182e-02  5.76413e-20
       H  1.43437e+00  9.68675e-01  6.48805e-22
       H -1.43437e+00  9.68675e-01  1.08183e-20
3
# CELL(abcABC):   35.23300    35.23300    35.23300    90.00000    90.00000    90.00000  cell{atomic_unit}  Traj: positions{atomic_unit} Step:          61  Bead:       0 
       O -1.88930e-17 -8.54182e-02  5.76420e-20
       H  1.43437e+00  9.68675e-01  6.48832e-22
       H -1.43437e+00  9.68675e-01  1.08184e-20
3
# CELL(abcABC):   35.23300    35.23300    35.23300    90.00000    90.00000    90.00000  cell{atomic_unit}  Traj: positions{atomic_unit} Step:          62  Bead:       0 
       O -1.88933e-17 -8.54182e-02  5.76398e-20
       H  1.43437e+00  9.68675e-01  6.49159e-22
       H -1.43437e+00  9.68675e-01  1.08180e-20
3
# CELL(abcABC):   35.23300    35.23300    35.23300    90.00000    90.00000    90.00000  cell{atomic_unit}  Traj: positions{atomic_unit} Step:          63  Bead:       0 
       O -1.88889e-17 -8.54181e-02  5.37679e-20
       H  1.43437e+00  9.68675e-01 -1.07736e-22
       H -1.43437e+00  9.68675e-01  1.03733e-20
3
# CELL(abcABC):   35.23300    35.23300    35.23300    90.00000    90.00000    90.00000  cell{atomic_unit}  Traj: positions{atomic_unit} Step:          64  Bead:       0 
       O -1.88897e-17 -8.54181e-02  5.37695e-20
       H  1.43437e+00  9.68675e-01 -1.07330e-22
       H -1.43437e+00  9.68675e-01  1.03770e-20
3
# CELL(abcABC):   35.23300    35.23300    35.23300    90.00000    90.00000    90.00000  cell{atomic_unit}  Traj: positions{atomic_unit} Step:          65  Bead:       0 
       O -1.88897e-17 -8.54181e-02  5.37704e-20
       H  1.43437e+00  9.68675e-01 -1.06877e-22
       H -1.43437e+00  9.68675e-01  1.03773e-20
3
# CELL(abcABC):   35.23300    35.23300    35.23300    90.00000    90.00000    90.00000  cell{atomic_unit}  Traj: positions{atomic_unit} Step:          66  Bead:       0 
       O -1.94819e-17 -8.54180e-02  5.32006e-20
       H  1.43437e+00  9.68675e-01 -2.08615e-22
       H -1.43437e+00  9.68675e-01  1.09413e-20
3
# CELL(abcABC):   35.23300    35.23300    35.23300    90.00000    90.00000    90.00000  cell{atomic_unit}  Traj: positions{atomic_unit} Step:          67  Bead:       0 
       O -1.94817e-17 -8.54180e-02  5.32000e-20
       H  1.43437e+00  9.68675e-01 -2.09679e-22
       H -1.43437e+00  9.68675e-01  1.09413e-20
3
# CELL(abcABC):   35.23300    35.23300    35.23300    90.00000    90.00000    90.00000  cell{atomic_unit}  Traj: positions{atomic_unit} Step:          68  Bead:       0 
       O -1.94821e-17 -8.54180e-02  5.31973e-20
       H  1.43437e+00  9.68675e-01 -2.10408e-22
       H -1.43437e+00  9.68675e-01  1.09418e-20
3
# CELL(abcABC):   35.23300    35.23300    35.23300    90.00000    90.00000    90.00000  cell{atomic_unit}  Traj: positions{atomic_unit} Step:          69  Bead:       0 
       O -2.00454e-17 -8.54178e-02  5.05230e-20
       H  1.43437e+00  9.68675e-01  1.08015e-21
       H -1.43437e+00  9.68675e-01  1.38645e-20
3
# CELL(abcABC):   35.23300    35.23300    35.23300    90.00000    90.00000    90.00000  cell{atomic_unit}  Traj: positions{atomic_unit} Step:          70  Bead:       0 
       O -2.00454e-17 -8.54178e-02  5.05202e-20
       H  1.43437e+00  9.68675e-01  1.07876e-21
       H -1.43437e+00  9.68675e-01  1.38643e-20
3
# CELL(abcABC):   35.23300    35.23300    35.23300    90.00000    90.00000    90.00000  cell{atomic_unit}  Traj: positions{atomic_unit} Step:          71  Bead:       0 
       O -2.00461e-17 -8.54178e-02  5.05185e-20
       H  1.43437e+00  9.68675e-01  1.07927e-21
       H -1.43437e+00  9.68675e-01  1.38649e-20
3
# CELL(abcABC):   35.23300    35.23300    35.23300    90.00000    90.00000    90.00000  cell{atomic_unit}  Traj: positions{atomic_unit} Step:          72  Bead:       0 
       O -2.07377e-17 -8.54177e-02  4.31558e-20
       H  1.43437e+00  9.68675e-01 -1.00756e-21
       H -1.43437e+00  9.68675e-01  1.25795e-20
3
# CELL(abcABC):   35.23300    35.23300    35.23300    90.00000    90.00000    90.00000  cell{atomic_unit}  Traj: positions{atomic_unit} Step:          73  Bead:       0 
       O -2.07375e-17 -8.54177e-02  4.31554e-20
       H  1.43437e+00  9.68675e-01 -1.00808e-21
       H -1.43437e+00  9.68675e-01  1.25803e-20
3
# CELL(abcABC):   35.23300    35.23300    35.23300    90.00000    90.00000    90.00000  cell{atomic_unit}  Traj: positions{atomic_unit} Step:          74  Bead:       0 
       O -2.07378e-17 -8.54177e-02  4.31557e-20
       H  1.43437e+00  9.68675e-01 -1.00852e-21
       H -1.43437e+00  9.68675e-01  1.25804e-20
3
# CELL(abcABC):   35.23300    35.23300    35.23300    90.00000    90.00000    90.00000  cell{atomic_unit}  Traj: positions{atomic_unit} Step:          75  Bead:       0 
       O -2.39054e-17 -8.54174e-02  5.47656e-20
       H  1.43437e+00  9.68674e-01 -2.23013e-21
       H -1.43437e+00  9.68674e-01  1.72124e-20
3
# CELL(abcABC):   35.23300    35.23300    35.23300    90.00000    90.00000    90.00000  cell{atomic_unit}  Traj: positions{atomic_unit} Step:          76  Bead:       0 
       O -2.39054e-17 -8.54174e-02  5.47644e-20
       H  1.43437e+00  9.68674e-01 -2.23098e-21
       H -1.43437e+00  9.68674e-01  1.72142e-20
3
# CELL(abcABC):   35.23300    35.23300    35.23300    90.00000    90.00000    90.00000  cell{atomic_unit}  Traj: positions{atomic_unit} Step:          77  Bead:       0 
       O -2.38874e-17 -8.54173e-02  4.75666e-20
       H  1.43437e+00  9.68674e-01 -5.58135e-21
       H -1.43437e+00  9.68674e-01  1.59759e-20
3
# CELL(abcABC):   35.23300    35.23300    35.23300    90.00000    90.00000    90.00000  cell{atomic_unit}  Traj: positions{atomic_unit} Step:          78  Bead:       0 
       O -2.38874e-17 -8.54173e-02  4.75700e-20
       H  1.43437e+00  9.68674e-01 -5.58257e-21
       H -1.43437e+00  9.68674e-01  1.59782e-20
3
# CELL(abcABC):   35.23300    35.23300    35.23300    90.00000    90.00000    90.00000  cell{atomic_unit}  Traj: positions{atomic_unit} Step:          79  Bead:       0 
       O -2.46046e-17 -8.54172e-02  4.77586e-20
       H  1.43437e+00  9.68674e-01 -5.15281e-21
       H -1.43437e+00  9.68674e-01  1.55954e-20
3
# CELL(abcABC):   35.23300    35.23300    35.23300    90.00000    90.00000    90.00000  cell{atomic_unit}  Traj: positions{atomic_unit} Step:          80  Bead:       0 
       O -2.46043e-17 -8.54172e-02  4.77596e-20
       H  1.43437e+00  9.68674e-01 -5.15266e-21
       H -1.43437e+00  9.68674e-01  1.55955e-20
3
# CELL(abcABC):   35.23300    35.23300    35.23300    90.00000    90.00000    90.00000  cell{atomic_unit}  Traj: positions{atomic_unit} Step:          81  Bead:       0 
       O -2.46048e-17 -8.54172e-02  4.77618e-20
       H  1.43437e+00  9.68674e-01 -5.14984e-21
       H -1.43437e+00  9.68674e-01  1.55961e-20
3
# CELL(abcABC):   35.23300    35.23300    35.23300    90.00000    90.00000    90.00000  cell{atomic_unit}  Traj: positions{atomic_unit} Step:          82  Bead:       0 
       O -2.45867e-17 -8.54170e-02  7.16102e-20
       H  1.43437e+00  9.68674e-01  1.42088e-21
       H -1.43437e+00  9.68674e-01  1.51875e-20
3
# CELL(abcABC):   35.23300    35.23300    35.23300    90.00000    90.00000    90.00000  cell{atomic_unit}  Traj: positions{atomic_unit} Step:          83  Bead:       0 
       O -2.45862e-17 -8.54170e-02  7.16096e-20
       H  1.43437e+00  9.68674e-01  1.42168e-21
       H -1.43437e+00  9.68674e-01  1.51882e-20
3
# CELL(abcABC):   35.23300    35.23300    35.23300    90.00000    90.00000    90.00000  cell{atomic_unit}  Traj: positions{atomic_unit} Step:          84  Bead:       0 
       O -2.45868e-17 -8.54170e-02  7.16064e-20
       H  1.43437e+00  9.68674e-01  1.42040e-21
       H -1.43437e+00  9.68674e-01  1.51858e-20
3
# CELL(abcABC):   35.23300    35.23300    35.23300    90.00000    90.00000    90.00000  cell{atomic_unit}  Traj: positions{atomic_unit} Step:          85  Bead:       0 
       O -2.79828e-17 -8.54165e-02  1.05202e-19
       H  1.43437e+00  9.68674e-01  7.91571e-21
       H -1.43437e+00  9.68674e-01  1.89879e-20
3
# CELL(abcABC):   35.23300    35.23300    35.23300    90.00000    90.00000    90.00000  cell{atomic_unit}  Traj: positions{atomic_unit} Step:          86  Bead:       0 
       O -2.80216e-17 -8.54165e-02  1.05200e-19
       H  1.43437e+00  9.68674e-01  7.91626e-21
       H -1.43437e+00  9.68674e-01  1.89876e-20
3
# CELL(abcABC):   35.23300    35.23300    35.23300    90.00000    90.00000    90.00000  cell{atomic_unit}  Traj: positions{atomic_unit} Step:          87  Bead:       0 
       O -2.79592e-17 -8.54165e-02  1.05218e-19
       H  1.43437e+00  9.68674e-01  7.91678e-21
       H -1.43437e+00  9.68674e-01  1.89907e-20
3
# CELL(abcABC):   35.23300    35.23300    35.23300    90.00000    90.00000    90.00000  cell{atomic_unit}  Traj: positions{atomic_unit} Step:          88  Bead:       0 
       O -2.92378e-17 -8.54164e-02  1.19836e-19
       H  1.43437e+00  9.68674e-01  9.01590e-21
       H -1.43437e+00  9.68674e-01  2.47344e-20
3
# CELL(abcABC):   35.23300    35.23300    35.23300    90.00000    90.00000    90.00000  cell{atomic_unit}  Traj: positions{atomic_unit} Step:          89  Bead:       0 
       O -2.92370e-17 -8.54164e-02  1.19838e-19
       H  1.43437e+00  9.68674e-01  9.01430e-21
       H -1.43437e+00  9.68674e-01  2.47342e-20
3
# CELL(abcABC):   35.23300    35.23300    35.23300    90.00000    90.00000    90.00000  cell{atomic_unit}  Traj: positions{atomic_unit} Step:          90  Bead:       0 
       O -2.92381e-17 -8.54164e-02  1.19849e-19
       H  1.43437e+00  9.68674e-01  9.01733e-21
       H -1.43437e+00  9.68674e-01  2.47370e-20
3
# CELL(abcABC):   35.23300    35.23300    35.23300    90.00000    90.00000    90.00000  cell{atomic_unit}  Traj: positions{atomic_unit} Step:          91  Bead:       0 
       O  1.61847e-16 -8.54162e-02  1.09873e-19
       H  1.43437e+00  9.68674e-01  3.18141e-21
       H -1.43437e+00  9.68674e-01  2.24265e-20
3
# CELL(abcABC):   35.23300    35.23300    35.23300    90.00000    90.00000    90.00000  cell{atomic_unit}  Traj: positions{atomic_unit} Step:          92  Bead:       0 
       O  1.61501e-16 -8.54162e-02  1.09871e-19
       H  1.43437e+00  9.68674e-01  3.18552e-21
       H -1.43437e+00  9.68674e-01  2.24217e-20
3
# CELL(abcABC):   35.23300    35.23300    35.23300    90.00000    90.00000    90.00000  cell{atomic_unit}  Traj: positions{atomic_unit} Step:          93  Bead:       0 
       O -2.02510e-16 -8.54161e-02  6.29810e-20
       H  1.43437e+00  9.68674e-01  1.20407e-20
       H -1.43437e+00  9.68674e-01  7.50018e-21
3
# CELL(abcABC):   35.23300    35.23300    35.23300    90.00000    90.00000    90.00000  cell{atomic_unit}  Traj: positions{atomic_unit} Step:          94  Bead:       0 
       O -2.02688e-16 -8.54161e-02  6.30020e-20
       H  1.43437e+00  9.68674e-01  1.20453e-20