3
# CELL(abcABC):   35.23300    35.23300    35.23300    90.00000    90.00000    90.00000  cell{atomic_unit}  Traj: positions{atomic_unit} Step:           0  Bead:       0 
       O  0.00000e+00 -3.77945e-02  0.00000e+00
       H  1.41729e+00  9.44863e-01  0.00000e+00
       H -1.41729e+00  9.44863e-01  0.00000e+00
3
# CELL(abcABC):   35.23300    35.23300    35.23300    90.00000    90.00000    90.00000  cell{atomic_unit}  Traj: positions{atomic_unit} Step:           1  Bead:       0 
       O -1.57816e-19 -1.06805e-01 -1.69206e-20
       H  1.45509e+00  9.79368e-01 -3.65045e-21
       H -1.45509e+00  9.79368e-01  5.80562e-21
3
# CELL(abcABC):   35.23300    35.23300    35.23300    90.00000    90.00000    90.00000  cell{atomic_unit}  Traj: positions{atomic_unit} Step:           2  Bead:       0 
       O -1.03463e-18 -8.31501e-02 -1.39042e-20
       H  1.44151e+00  9.67541e-01 -1.46941e-21
       H -1.44151e+00  9.67541e-01  9.42674e-21
3
# CELL(abcABC):   35.23300    35.23300    35.23300    90.00000    90.00000    90.00000  cell{atomic_unit}  Traj: positions{atomic_unit} Step:           3  Bead:       0 
       O -2.53761e-18 -8.16469e-02 -5.91265e-21
       H  1.43926e+00  9.66789e-01  2.32706e-21
       H -1.43926e+00  9.66789e-01  9.97186e-21
3
# CELL(abcABC):   35.23300    35.23300    35.23300    90.00000    90.00000    90.00000  cell{atomic_unit}  Traj: positions{atomic_unit} Step:           4  Bead:       0 
       O -4.39951e-18 -8.21977e-02  3.56124e-22
       H  1.43810e+00  9.67065e-01  5.51612e-21
       H -1.43810e+00  9.67065e-01  1.07691e-20
3
# CELL(abcABC):   35.23300    35.23300    35.23300    90.00000    90.00000    90.00000  cell{atomic_unit}  Traj: positions{atomic_unit} Step:           5  Bead:       0 
       O  3.08597e-18 -8.51481e-02 -2.19617e-19
       H  1.43445e+00  9.68540e-01 -2.12615e-20
       H -1.43445e+00  9.68540e-01 -2.41189e-20
3
# CELL(abcABC):   35.23300    35.23300    35.23300    90.00000    90.00000    90.00000  cell{atomic_unit}  Traj: positions{atomic_unit} Step:           6  Bead:       0 
       O -1.62999e-17 -8.54148e-02 -1.48902e-19
       H  1.43437e+00  9.68673e-01  3.53241e-20
       H -1.43437e+00  9.68673e-01 -1.93448e-20
3
# CELL(abcABC):   35.23300    35.23300    35.23300    90.00000    90.00000    90.00000  cell{atomic_unit}  Traj: positions{atomic_unit} Step:           7  Bead:       0 
       O -1.64952e-17 -8.54149e-02 -1.48432e-19
       H  1.43437e+00  9.68673e-01  3.50278e-20
       H -1.43437e+00  9.68673e-01 -1.94393e-20
3
# CELL(abcABC):   35.23300    35.23300    35.23300    90.00000    90.00000    90.00000  cell{atomic_unit}  Traj: positions{atomic_unit} Step:           8  Bead:       0 
       O -1.66904e-17 -8.54150e-02 -1.47961e-19
       H  1.43437e+00  9.68673e-01  3.47316e-20
       H -1.43437e+00  9.68673e-01 -1.95338e-20
3
# CELL(abcABC):   35.23300    35.23300    35.23300    90.00000    90.00000    90.00000  cell{atomic_unit}  Traj: positions{atomic_unit} Step:           9  Bead:       0 
       O -1.86427e-17 -8.54161e-02 -1.43255e-19
       H  1.43437e+00  9.68674e-01  3.17687e-20
       H -1.43437e+00  9.68674e-01 -2.04792e-20
