LAMMPS (17 Nov 2016)
Reading data file ...
  triclinic box = (-3.4858 -4.57323 -6.40482) to (3.4858 4.57323 6.40482) with tilt (1.1 1.1 1.1)
  1 by 1 by 1 MPI processor grid
  reading atoms ...
  80 atoms
  scanning bonds ...
  3 = max bonds/atom
  scanning angles ...
  6 = max angles/atom
  scanning dihedrals ...
  18 = max dihedrals/atom
  scanning impropers ...
  2 = max impropers/atom
  reading bonds ...
  80 bonds
  reading angles ...
  124 angles
  reading dihedrals ...
  224 dihedrals
  reading impropers ...
  32 impropers
Finding 1-2 1-3 1-4 neighbors ...
 Special bond factors lj:   0          0          0         
 Special bond factors coul: 0          0          0         
  4 = max # of 1-2 neighbors
  6 = max # of 1-3 neighbors
  12 = max # of 1-4 neighbors
  14 = max # of special neighbors
PPPM initialization ...
WARNING: Using 12-bit tables for long-range coulomb (../kspace.cpp:317)
  G vector (1/distance) = 0.272429
  grid = 5 6 8
  stencil order = 5
  estimated absolute RMS force accuracy = 0.00493156
  estimated relative force accuracy = 1.48512e-05
  using double precision FFTs
  3d grid and FFT values/proc = 2340 240
Neighbor list info ...
  1 neighbor list requests
  update every 1 steps, delay 0 steps, check yes
  max neighbors/atom: 2000, page size: 100000
  master list distance cutoff = 12
  ghost atom cutoff = 12
  binsize = 6, bins = 2 2 3
Setting up Verlet run ...
  Unit style    : real
  Current step  : 0
  Time step     : 1
WARNING: Bond/angle/dihedral extent > half of periodic box length (../domain.cpp:906)
Memory usage per processor = 14.9948 Mbytes
Step Temp E_pair E_mol TotEng Press 
       0            0 6.0895677e+08    53.653003 6.0895683e+08 2.0448259e+11 
READING POSITION FROM IPI1
READING POSITION FROM IPI2
READING POSITION FROM IPI3
READING POSITION FROM IPI4
READING POSITION FROM IPI5
READING POSITION FROM IPI6
READING POSITION FROM IPI7
READING POSITION FROM IPI8
READING POSITION FROM IPI9
READING POSITION FROM IPI10
READING POSITION FROM IPI11
READING POSITION FROM IPI12
READING POSITION FROM IPI13
READING POSITION FROM IPI14
READING POSITION FROM IPI15
READING POSITION FROM IPI16
READING POSITION FROM IPI17
READING POSITION FROM IPI18
READING POSITION FROM IPI19
READING POSITION FROM IPI20
READING POSITION FROM IPI21
READING POSITION FROM IPI22
READING POSITION FROM IPI23
READING POSITION FROM IPI24
READING POSITION FROM IPI25
READING POSITION FROM IPI26
READING POSITION FROM IPI27
READING POSITION FROM IPI28
READING POSITION FROM IPI29
READING POSITION FROM IPI30
READING POSITION FROM IPI31
READING POSITION FROM IPI32
READING POSITION FROM IPI33
READING POSITION FROM IPI34
READING POSITION FROM IPI35
READING POSITION FROM IPI36
READING POSITION FROM IPI37
READING POSITION FROM IPI38
READING POSITION FROM IPI39
READING POSITION FROM IPI40
READING POSITION FROM IPI41
READING POSITION FROM IPI42
READING POSITION FROM IPI43
READING POSITION FROM IPI44
READING POSITION FROM IPI45
READING POSITION FROM IPI46
READING POSITION FROM IPI47
READING POSITION FROM IPI48
READING POSITION FROM IPI49
READING POSITION FROM IPI50
READING POSITION FROM IPI51
READING POSITION FROM IPI52
READING POSITION FROM IPI53
READING POSITION FROM IPI54
READING POSITION FROM IPI55
READING POSITION FROM IPI56
READING POSITION FROM IPI57
READING POSITION FROM IPI58
READING POSITION FROM IPI59
READING POSITION FROM IPI60
READING POSITION FROM IPI61
READING POSITION FROM IPI62
READING POSITION FROM IPI63
READING POSITION FROM IPI64
READING POSITION FROM IPI65
READING POSITION FROM IPI66
READING POSITION FROM IPI67
READING POSITION FROM IPI68
READING POSITION FROM IPI69
READING POSITION FROM IPI70
READING POSITION FROM IPI71
READING POSITION FROM IPI72
READING POSITION FROM IPI73
READING POSITION FROM IPI74
READING POSITION FROM IPI75
READING POSITION FROM IPI76
READING POSITION FROM IPI77
READING POSITION FROM IPI78
READING POSITION FROM IPI79
READING POSITION FROM IPI80
READING POSITION FROM IPI81
READING POSITION FROM IPI82
READING POSITION FROM IPI83
READING POSITION FROM IPI84
READING POSITION FROM IPI85
READING POSITION FROM IPI86
READING POSITION FROM IPI87
READING POSITION FROM IPI88
READING POSITION FROM IPI89
READING POSITION FROM IPI90
READING POSITION FROM IPI91
READING POSITION FROM IPI92
READING POSITION FROM IPI93
READING POSITION FROM IPI94
READING POSITION FROM IPI95
READING POSITION FROM IPI96
READING POSITION FROM IPI97
READING POSITION FROM IPI98
READING POSITION FROM IPI99
READING POSITION FROM IPI100
     100            0   -323.20802     31.75223   -291.45579    3234.7761 
READING POSITION FROM IPI101
READING POSITION FROM IPI102
READING POSITION FROM IPI103
READING POSITION FROM IPI104
READING POSITION FROM IPI105
READING POSITION FROM IPI106
READING POSITION FROM IPI107
READING POSITION FROM IPI108
READING POSITION FROM IPI109
READING POSITION FROM IPI110
READING POSITION FROM IPI111
READING POSITION FROM IPI112
READING POSITION FROM IPI113
READING POSITION FROM IPI114
READING POSITION FROM IPI115
READING POSITION FROM IPI116
READING POSITION FROM IPI117
READING POSITION FROM IPI118
READING POSITION FROM IPI119
READING POSITION FROM IPI120
READING POSITION FROM IPI121
READING POSITION FROM IPI122
READING POSITION FROM IPI123
READING POSITION FROM IPI124
READING POSITION FROM IPI125
READING POSITION FROM IPI126
READING POSITION FROM IPI127
READING POSITION FROM IPI128
READING POSITION FROM IPI129
READING POSITION FROM IPI130
READING POSITION FROM IPI131
READING POSITION FROM IPI132
READING POSITION FROM IPI133
READING POSITION FROM IPI134
READING POSITION FROM IPI135
READING POSITION FROM IPI136
READING POSITION FROM IPI137
READING POSITION FROM IPI138
READING POSITION FROM IPI139
READING POSITION FROM IPI140
READING POSITION FROM IPI141
READING POSITION FROM IPI142
READING POSITION FROM IPI143
READING POSITION FROM IPI144
READING POSITION FROM IPI145
READING POSITION FROM IPI146
READING POSITION FROM IPI147
READING POSITION FROM IPI148
READING POSITION FROM IPI149
READING POSITION FROM IPI150
READING POSITION FROM IPI151
READING POSITION FROM IPI152
READING POSITION FROM IPI153
READING POSITION FROM IPI154
READING POSITION FROM IPI155
READING POSITION FROM IPI156
READING POSITION FROM IPI157
READING POSITION FROM IPI158
READING POSITION FROM IPI159
READING POSITION FROM IPI160
READING POSITION FROM IPI161
READING POSITION FROM IPI162
READING POSITION FROM IPI163
READING POSITION FROM IPI164
READING POSITION FROM IPI165
READING POSITION FROM IPI166
READING POSITION FROM IPI167
READING POSITION FROM IPI168
READING POSITION FROM IPI169
READING POSITION FROM IPI170
READING POSITION FROM IPI171
READING POSITION FROM IPI172
READING POSITION FROM IPI173
READING POSITION FROM IPI174
READING POSITION FROM IPI175
READING POSITION FROM IPI176
READING POSITION FROM IPI177
READING POSITION FROM IPI178
READING POSITION FROM IPI179
READING POSITION FROM IPI180
READING POSITION FROM IPI181
READING POSITION FROM IPI182
READING POSITION FROM IPI183
READING POSITION FROM IPI184
READING POSITION FROM IPI185
READING POSITION FROM IPI186
READING POSITION FROM IPI187
READING POSITION FROM IPI188
READING POSITION FROM IPI189
READING POSITION FROM IPI190
READING POSITION FROM IPI191
READING POSITION FROM IPI192
READING POSITION FROM IPI193
READING POSITION FROM IPI194
READING POSITION FROM IPI195
READING POSITION FROM IPI196
READING POSITION FROM IPI197
READING POSITION FROM IPI198
READING POSITION FROM IPI199
READING POSITION FROM IPI200
     200            0   -324.30846    32.252358    -292.0561    2798.4606 
READING POSITION FROM IPI201
READING POSITION FROM IPI202
READING POSITION FROM IPI203
READING POSITION FROM IPI204
READING POSITION FROM IPI205
READING POSITION FROM IPI206
READING POSITION FROM IPI207
READING POSITION FROM IPI208
READING POSITION FROM IPI209
READING POSITION FROM IPI210
READING POSITION FROM IPI211
READING POSITION FROM IPI212
READING POSITION FROM IPI213
READING POSITION FROM IPI214
READING POSITION FROM IPI215
READING POSITION FROM IPI216
READING POSITION FROM IPI217
READING POSITION FROM IPI218
READING POSITION FROM IPI219
READING POSITION FROM IPI220
READING POSITION FROM IPI221
READING POSITION FROM IPI222
READING POSITION FROM IPI223
READING POSITION FROM IPI224
READING POSITION FROM IPI225
READING POSITION FROM IPI226
READING POSITION FROM IPI227
READING POSITION FROM IPI228
READING POSITION FROM IPI229
READING POSITION FROM IPI230
READING POSITION FROM IPI231
READING POSITION FROM IPI232
READING POSITION FROM IPI233
READING POSITION FROM IPI234
READING POSITION FROM IPI235
READING POSITION FROM IPI236
READING POSITION FROM IPI237
READING POSITION FROM IPI238
READING POSITION FROM IPI239
READING POSITION FROM IPI240
READING POSITION FROM IPI241
READING POSITION FROM IPI242
READING POSITION FROM IPI243
READING POSITION FROM IPI244
READING POSITION FROM IPI245
READING POSITION FROM IPI246
READING POSITION FROM IPI247
READING POSITION FROM IPI248
READING POSITION FROM IPI249
READING POSITION FROM IPI250
READING POSITION FROM IPI251
READING POSITION FROM IPI252
READING POSITION FROM IPI253
READING POSITION FROM IPI254
READING POSITION FROM IPI255
READING POSITION FROM IPI256
READING POSITION FROM IPI257
READING POSITION FROM IPI258
READING POSITION FROM IPI259
READING POSITION FROM IPI260
READING POSITION FROM IPI261
READING POSITION FROM IPI262
READING POSITION FROM IPI263
READING POSITION FROM IPI264
READING POSITION FROM IPI265
READING POSITION FROM IPI266
READING POSITION FROM IPI267
READING POSITION FROM IPI268
READING POSITION FROM IPI269
READING POSITION FROM IPI270
READING POSITION FROM IPI271
READING POSITION FROM IPI272
READING POSITION FROM IPI273
READING POSITION FROM IPI274
READING POSITION FROM IPI275
READING POSITION FROM IPI276
READING POSITION FROM IPI277
READING POSITION FROM IPI278
READING POSITION FROM IPI279
READING POSITION FROM IPI280
READING POSITION FROM IPI281
READING POSITION FROM IPI282
READING POSITION FROM IPI283
READING POSITION FROM IPI284
READING POSITION FROM IPI285
READING POSITION FROM IPI286
READING POSITION FROM IPI287
READING POSITION FROM IPI288
READING POSITION FROM IPI289
READING POSITION FROM IPI290
READING POSITION FROM IPI291
READING POSITION FROM IPI292
READING POSITION FROM IPI293
READING POSITION FROM IPI294
READING POSITION FROM IPI295
READING POSITION FROM IPI296
READING POSITION FROM IPI297
READING POSITION FROM IPI298
READING POSITION FROM IPI299
READING POSITION FROM IPI300
     300            0   -324.34134    32.280354   -292.06099    2786.5795 
READING POSITION FROM IPI301
READING POSITION FROM IPI302
READING POSITION FROM IPI303
READING POSITION FROM IPI304
READING POSITION FROM IPI305
READING POSITION FROM IPI306
READING POSITION FROM IPI307
READING POSITION FROM IPI308
READING POSITION FROM IPI309
READING POSITION FROM IPI310
READING POSITION FROM IPI311
READING POSITION FROM IPI312
READING POSITION FROM IPI313
READING POSITION FROM IPI314
READING POSITION FROM IPI315
READING POSITION FROM IPI316
READING POSITION FROM IPI317
READING POSITION FROM IPI318
READING POSITION FROM IPI319
READING POSITION FROM IPI320
READING POSITION FROM IPI321
READING POSITION FROM IPI322
READING POSITION FROM IPI323
READING POSITION FROM IPI324
READING POSITION FROM IPI325
READING POSITION FROM IPI326
READING POSITION FROM IPI327
READING POSITION FROM IPI328
READING POSITION FROM IPI329
READING POSITION FROM IPI330
READING POSITION FROM IPI331
READING POSITION FROM IPI332
READING POSITION FROM IPI333
READING POSITION FROM IPI334
READING POSITION FROM IPI335
READING POSITION FROM IPI336
READING POSITION FROM IPI337
READING POSITION FROM IPI338
READING POSITION FROM IPI339
READING POSITION FROM IPI340
READING POSITION FROM IPI341
READING POSITION FROM IPI342
READING POSITION FROM IPI343
READING POSITION FROM IPI344
READING POSITION FROM IPI345
READING POSITION FROM IPI346
READING POSITION FROM IPI347
READING POSITION FROM IPI348
READING POSITION FROM IPI349
READING POSITION FROM IPI350
READING POSITION FROM IPI351
READING POSITION FROM IPI352
READING POSITION FROM IPI353
READING POSITION FROM IPI354
READING POSITION FROM IPI355
READING POSITION FROM IPI356
READING POSITION FROM IPI357
READING POSITION FROM IPI358
READING POSITION FROM IPI359
READING POSITION FROM IPI360
READING POSITION FROM IPI361
READING POSITION FROM IPI362
READING POSITION FROM IPI363
READING POSITION FROM IPI364
READING POSITION FROM IPI365
READING POSITION FROM IPI366
READING POSITION FROM IPI367
READING POSITION FROM IPI368
READING POSITION FROM IPI369
READING POSITION FROM IPI370
READING POSITION FROM IPI371
READING POSITION FROM IPI372
READING POSITION FROM IPI373
READING POSITION FROM IPI374
READING POSITION FROM IPI375
READING POSITION FROM IPI376
READING POSITION FROM IPI377
READING POSITION FROM IPI378
READING POSITION FROM IPI379
READING POSITION FROM IPI380
READING POSITION FROM IPI381
READING POSITION FROM IPI382
READING POSITION FROM IPI383
READING POSITION FROM IPI384
READING POSITION FROM IPI385
READING POSITION FROM IPI386
READING POSITION FROM IPI387
READING POSITION FROM IPI388
READING POSITION FROM IPI389
READING POSITION FROM IPI390
READING POSITION FROM IPI391
READING POSITION FROM IPI392
READING POSITION FROM IPI393
READING POSITION FROM IPI394
READING POSITION FROM IPI395
READING POSITION FROM IPI396
READING POSITION FROM IPI397
READING POSITION FROM IPI398
READING POSITION FROM IPI399
READING POSITION FROM IPI400
     400            0   -324.34069    32.279699   -292.06099    2783.3218 
READING POSITION FROM IPI401
READING POSITION FROM IPI402
READING POSITION FROM IPI403
READING POSITION FROM IPI404
READING POSITION FROM IPI405
READING POSITION FROM IPI406
READING POSITION FROM IPI407
READING POSITION FROM IPI408
READING POSITION FROM IPI409
READING POSITION FROM IPI410
READING POSITION FROM IPI411
READING POSITION FROM IPI412
READING POSITION FROM IPI413
READING POSITION FROM IPI414
READING POSITION FROM IPI415
READING POSITION FROM IPI416
READING POSITION FROM IPI417
READING POSITION FROM IPI418
READING POSITION FROM IPI419
READING POSITION FROM IPI420
READING POSITION FROM IPI421
READING POSITION FROM IPI422
READING POSITION FROM IPI423
READING POSITION FROM IPI424
READING POSITION FROM IPI425
READING POSITION FROM IPI426
READING POSITION FROM IPI427
READING POSITION FROM IPI428
READING POSITION FROM IPI429
READING POSITION FROM IPI430
READING POSITION FROM IPI431
READING POSITION FROM IPI432
READING POSITION FROM IPI433
READING POSITION FROM IPI434
READING POSITION FROM IPI435
READING POSITION FROM IPI436
READING POSITION FROM IPI437
READING POSITION FROM IPI438
READING POSITION FROM IPI439
READING POSITION FROM IPI440
READING POSITION FROM IPI441
READING POSITION FROM IPI442
READING POSITION FROM IPI443
READING POSITION FROM IPI444
READING POSITION FROM IPI445
READING POSITION FROM IPI446
READING POSITION FROM IPI447
READING POSITION FROM IPI448
READING POSITION FROM IPI449
READING POSITION FROM IPI450
READING POSITION FROM IPI451
READING POSITION FROM IPI452
READING POSITION FROM IPI453
READING POSITION FROM IPI454
READING POSITION FROM IPI455
READING POSITION FROM IPI456
READING POSITION FROM IPI457
READING POSITION FROM IPI458
READING POSITION FROM IPI459
READING POSITION FROM IPI460
ERROR on proc 0: Got EXIT message from i-PI. Now leaving! (../fix_ipi.cpp:289)
