80
# CELL(abcABC):   13.18034    17.29206    24.21758    90.00000    66.14000    90.00000  cell{atomic_unit}  Traj: positions{angstrom} Step:           0  Bead:       0 
       C  8.32411e+00  5.50734e+00  9.63997e+00
       H  8.14828e+00  6.57705e+00  9.40205e+00
       H  7.63329e+00  5.32799e+00  1.04711e+01
       H  9.14937e+00  5.29216e+00  9.95950e+00
       C  7.90421e+00  4.70055e+00  8.43726e+00
       O  6.70253e+00  4.61243e+00  8.08924e+00
       N  8.91233e+00  4.10208e+00  7.75895e+00
       H  9.84443e+00  4.18558e+00  8.17641e+00
       C  8.84522e+00  3.26575e+00  6.62119e+00
       C  7.78854e+00  3.27587e+00  5.70159e+00
       H  6.95513e+00  3.95640e+00  5.82864e+00
       C  7.80630e+00  2.40860e+00  4.60969e+00
       H  6.98386e+00  2.43805e+00  3.89684e+00
       C  9.93096e+00  2.40361e+00  6.40724e+00
       H  1.07628e+01  2.40648e+00  7.11015e+00
       C  9.94977e+00  1.54041e+00  5.31616e+00
       H  1.07886e+01  8.62363e-01  5.17676e+00
       C  8.87757e+00  1.52845e+00  4.41359e+00
       O  8.82412e+00  6.67051e-01  3.35182e+00
       H  9.72324e+00  3.08216e-01  3.09328e+00
       C  6.42142e+00  1.00811e+01  7.93434e+00
       H  5.39615e+00  9.86590e+00  7.61483e+00
       H  7.21223e+00  9.90173e+00  7.10317e+00
       H  6.59724e+00  1.11508e+01  8.17225e+00
       C  6.84133e+00  9.27432e+00  9.13706e+00
       O  8.04301e+00  9.18623e+00  9.48509e+00
       N  5.83322e+00  8.67584e+00  9.81537e+00
       H  4.90112e+00  8.75933e+00  9.39793e+00
       C  5.90034e+00  7.83952e+00  1.09531e+01
       C  4.81461e+00  6.97736e+00  1.11671e+01
       H  3.98278e+00  6.98024e+00  1.04642e+01
       C  4.79582e+00  6.11415e+00  1.22582e+01
       H  3.95697e+00  5.43611e+00  1.23976e+01
       C  6.95704e+00  7.84962e+00  1.18727e+01
       H  7.79045e+00  8.53016e+00  1.17457e+01
       C  6.93929e+00  6.98233e+00  1.29646e+01
       H  7.76174e+00  7.01179e+00  1.36775e+01
       C  5.86802e+00  6.10220e+00  1.31607e+01
       O  5.92150e+00  5.24077e+00  1.42225e+01
       H  5.02237e+00  4.88196e+00  1.44810e+01
       C  3.83039e+00  3.64013e+00  2.07625e+00
       H  4.42121e+00  3.81951e+00  1.24508e+00
       H  3.90623e+00  2.57042e+00  2.31415e+00
       H  2.70512e+00  3.85531e+00  1.75673e+00
       C  4.25029e+00  4.44691e+00  3.27898e+00
       O  5.45197e+00  4.53505e+00  3.62698e+00
       N  3.24217e+00  5.04537e+00  3.95728e+00
       H  2.31007e+00  4.96185e+00  3.53985e+00
       C  3.30928e+00  5.88172e+00  5.09504e+00
       C  2.22355e+00  6.74388e+00  5.30898e+00
       H  1.39173e+00  6.74102e+00  4.60606e+00
       C  2.20474e+00  7.60708e+00  6.40005e+00
       H  1.36590e+00  8.28514e+00  6.53944e+00
       C  4.36597e+00  5.87161e+00  6.01463e+00
       H  5.19939e+00  5.19109e+00  5.88757e+00
       C  4.34821e+00  6.73889e+00  7.10652e+00
       H  5.17066e+00  6.70944e+00  7.81936e+00
       C  3.27694e+00  7.61902e+00  7.30263e+00
       O  3.33038e+00  8.48041e+00  8.36441e+00
       H  2.43125e+00  8.83923e+00  8.62297e+00
       C  5.73310e+00 -9.33623e-01  3.78188e+00
       H  5.04229e+00 -7.54231e-01  4.61305e+00
       H  6.75837e+00 -7.18422e-01  4.10139e+00
       H  5.65726e+00 -2.00333e+00  3.54399e+00
       C  5.31318e+00 -1.26869e-01  2.57915e+00
       O  4.11150e+00 -3.87555e-02  2.23114e+00
       N  6.32129e+00  4.71607e-01  1.90083e+00
       H  7.25340e+00  3.88098e-01  2.31826e+00
       C  6.25417e+00  1.30796e+00  7.63085e-01
       C  7.33989e+00  2.17012e+00  5.49131e-01
       H  8.17172e+00  2.16726e+00  1.25204e+00
       C  7.35869e+00  3.03333e+00 -5.41932e-01
       H  8.19753e+00  3.71140e+00 -6.81326e-01
       C  5.19747e+00  1.29786e+00 -1.56497e-01
       H  4.36406e+00  6.17340e-01 -2.94301e-02
       C  5.21521e+00  2.16515e+00 -1.24838e+00
       H  4.39275e+00  2.13570e+00 -1.96121e+00
       C  6.28648e+00  3.04528e+00 -1.44450e+00
       O  6.23302e+00  3.90669e+00 -2.50626e+00
       H  7.13215e+00  4.26548e+00 -2.76485e+00
80
# CELL(abcABC):   13.18034    17.29206    24.21758    90.00000    66.14000    90.00000  cell{atomic_unit}  Traj: positions{angstrom} Step:           1  Bead:       0 
       C  8.27604e+00  5.52136e+00  9.62600e+00
       H  8.15423e+00  6.57333e+00  9.40225e+00
       H  7.63356e+00  5.32540e+00  1.04694e+01
       H  9.19209e+00  5.28403e+00  9.97213e+00
       C  7.87678e+00  4.70067e+00  8.42801e+00
       O  6.72310e+00  4.61529e+00  8.09884e+00
       N  8.92385e+00  4.09921e+00  7.76005e+00
       H  9.84233e+00  4.18387e+00  8.17706e+00
       C  8.84480e+00  3.26564e+00  6.62168e+00
       C  7.78764e+00  3.27585e+00  5.70397e+00
       H  6.95553e+00  3.95628e+00  5.82846e+00
       C  7.80495e+00  2.40638e+00  4.60550e+00
       H  6.98484e+00  2.43725e+00  3.89771e+00
       C  9.93186e+00  2.40761e+00  6.41043e+00
       H  1.07619e+01  2.40616e+00  7.10907e+00
       C  9.95078e+00  1.53564e+00  5.31035e+00
       H  1.07872e+01  8.63380e-01  5.17709e+00
       C  8.87815e+00  1.53417e+00  4.42036e+00
       O  8.82430e+00  6.62936e-01  3.34620e+00
       H  9.72131e+00  3.12546e-01  3.09714e+00
       C  6.44045e+00  1.00839e+01  7.92653e+00
       H  5.39690e+00  9.86670e+00  7.61406e+00
       H  7.19755e+00  9.90130e+00  7.11363e+00
       H  6.59182e+00  1.11468e+01  8.17285e+00
       C  6.86830e+00  9.27506e+00  9.14688e+00
       O  8.02246e+00  9.18913e+00  9.47553e+00
       N  5.82182e+00  8.67311e+00  9.81414e+00
       H  4.90321e+00  8.75762e+00  9.39726e+00
       C  5.90076e+00  7.83940e+00  1.09527e+01
       C  4.81371e+00  6.98136e+00  1.11639e+01
       H  3.98363e+00  6.97989e+00  1.04653e+01
       C  4.79480e+00  6.10939e+00  1.22640e+01
       H  3.95833e+00  5.43698e+00  1.23973e+01
       C  6.95794e+00  7.84959e+00  1.18703e+01
       H  7.79005e+00  8.53004e+00  1.17459e+01
       C  6.94065e+00  6.98012e+00  1.29688e+01
       H  7.76076e+00  7.01099e+00  1.36766e+01
       C  5.86743e+00  6.10794e+00  1.31540e+01
       O  5.92110e+00  5.23684e+00  1.42282e+01
       H  5.02432e+00  4.88630e+00  1.44772e+01
       C  3.79665e+00  3.63784e+00  2.08090e+00
       H  4.43064e+00  3.82418e+00  1.23550e+00
       H  3.90625e+00  2.57235e+00  2.31487e+00
       H  2.72782e+00  3.85176e+00  1.76407e+00
       C  4.27915e+00  4.44656e+00  3.28790e+00
       O  5.43138e+00  4.53209e+00  3.61744e+00
       N  3.23074e+00  5.04804e+00  3.95593e+00
       H  2.31217e+00  4.96356e+00  3.53919e+00
       C  3.30973e+00  5.88187e+00  5.09453e+00
       C  2.22265e+00  6.73988e+00  5.30579e+00
       H  1.39261e+00  6.74134e+00  4.60715e+00
       C  2.20375e+00  7.61183e+00  6.40586e+00
       H  1.36748e+00  8.28392e+00  6.53905e+00
       C  4.36688e+00  5.87166e+00  6.01222e+00
       H  5.19898e+00  5.19122e+00  5.88775e+00
       C  4.34956e+00  6.74111e+00  7.11070e+00
       H  5.16968e+00  6.71024e+00  7.81849e+00
       C  3.27635e+00  7.61330e+00  7.29588e+00
       O  3.33018e+00  8.48452e+00  8.37005e+00
       H  2.43318e+00  8.83490e+00  8.61912e+00
       C  5.73284e+00 -9.36970e-01  3.78162e+00
       H  5.04342e+00 -7.52543e-01  4.61222e+00
       H  6.75766e+00 -7.17594e-01  4.10093e+00
       H  5.65815e+00 -2.00142e+00  3.54298e+00
       C  5.28525e+00 -1.27617e-01  2.56963e+00
       O  4.13208e+00 -4.17287e-02  2.24066e+00
       N  6.33269e+00  4.74324e-01  1.90204e+00
       H  7.25131e+00  3.89815e-01  2.31893e+00
       C  6.25372e+00  1.30811e+00  7.63584e-01
       C  7.34078e+00  2.16610e+00  5.52307e-01
       H  8.17082e+00  2.16755e+00  1.25094e+00
       C  7.35970e+00  3.03809e+00 -5.47755e-01
       H  8.19607e+00  3.71038e+00 -6.81003e-01
       C  5.19656e+00  1.29791e+00 -1.54091e-01
       H  4.36445e+00  6.17458e-01 -2.96096e-02
       C  5.21385e+00  2.16737e+00 -1.25256e+00
       H  4.39372e+00  2.13650e+00 -1.96035e+00
       C  6.28705e+00  3.03957e+00 -1.43775e+00
       O  6.23294e+00  3.91097e+00 -2.51182e+00
       H  7.13020e+00  4.26115e+00 -2.76100e+00
80
# CELL(abcABC):   13.18034    17.29206    24.21758    90.00000    66.14000    90.00000  cell{atomic_unit}  Traj: positions{angstrom} Step:           2  Bead:       0 
       C  8.24134e+00  5.52805e+00  9.61519e+00
       H  8.15925e+00  6.57506e+00  9.40020e+00
       H  7.62882e+00  5.32167e+00  1.04696e+01
       H  9.22974e+00  5.27789e+00  9.98077e+00
       C  7.88351e+00  4.70264e+00  8.42472e+00
       O  6.71375e+00  4.61540e+00  8.09996e+00
       N  8.92378e+00  4.09841e+00  7.76149e+00
       H  9.84388e+00  4.18176e+00  8.18031e+00
       C  8.84714e+00  3.26560e+00  6.62380e+00
       C  7.78621e+00  3.27423e+00  5.70507e+00
       H  6.95583e+00  3.95639e+00  5.82845e+00
       C  7.80384e+00  2.40624e+00  4.60430e+00
       H  6.98524e+00  2.43578e+00  3.89763e+00
       C  9.93235e+00  2.40961e+00  6.40979e+00
       H  1.07615e+01  2.40597e+00  7.10849e+00
       C  9.95181e+00  1.53439e+00  5.30853e+00
       H  1.07863e+01  8.63328e-01  5.17672e+00
       C  8.87783e+00  1.53600e+00  4.42157e+00
       O  8.82274e+00  6.61720e-01  3.34334e+00
       H  9.72119e+00  3.17564e-01  3.10189e+00
       C  6.45738e+00  1.00843e+01  7.92493e+00
       H  5.40261e+00  9.86832e+00  7.61414e+00
       H  7.18306e+00  9.89965e+00  7.12197e+00
       H  6.58526e+00  1.11431e+01  8.17356e+00
       C  6.85668e+00  9.27900e+00  9.14678e+00
       O  8.03177e+00  9.18992e+00  9.47379e+00
       N  5.82235e+00  8.67203e+00  9.81327e+00
       H  4.90167e+00  8.75547e+00  9.39399e+00
       C  5.89842e+00  7.83948e+00  1.09505e+01
       C  4.81320e+00  6.98335e+00  1.11645e+01
       H  3.98395e+00  6.97964e+00  1.04658e+01
       C  4.79371e+00  6.10811e+00  1.22658e+01
       H  3.95907e+00  5.43676e+00  1.23977e+01
       C  6.95937e+00  7.84797e+00  1.18693e+01
       H  7.78976e+00  8.53016e+00  1.17459e+01
       C  6.94176e+00  6.97999e+00  1.29700e+01
       H  7.76037e+00  7.00952e+00  1.36767e+01
       C  5.86770e+00  6.10981e+00  1.31528e+01
       O  5.92249e+00  5.23589e+00  1.42312e+01
       H  5.02439e+00  4.89130e+00  1.44725e+01
       C  3.77950e+00  3.63673e+00  2.08665e+00
       H  4.43687e+00  3.82873e+00  1.22908e+00
       H  3.90439e+00  2.57440e+00  2.31590e+00
       H  2.74609e+00  3.84935e+00  1.77184e+00
       C  4.26127e+00  4.44356e+00  3.28703e+00
       O  5.44241e+00  4.53037e+00  3.61462e+00
       N  3.23287e+00  5.04958e+00  3.95581e+00
       H  2.31062e+00  4.96567e+00  3.53591e+00
       C  3.30743e+00  5.88187e+00  5.09228e+00
       C  2.22218e+00  6.73788e+00  5.30642e+00
       H  1.39298e+00  6.74152e+00  4.60773e+00
       C  2.20278e+00  7.61302e+00  6.40767e+00
       H  1.36843e+00  8.28375e+00  6.53932e+00
       C  4.36833e+00  5.87333e+00  6.01108e+00
       H  5.19868e+00  5.19111e+00  5.88776e+00
       C  4.35067e+00  6.74126e+00  7.11190e+00
       H  5.16928e+00  6.71171e+00  7.81857e+00
       C  3.27664e+00  7.61144e+00  7.29470e+00
       O  3.33175e+00  8.48572e+00  8.37291e+00
       H  2.43330e+00  8.82988e+00  8.61437e+00
       C  5.72840e+00 -9.38432e-01  3.77825e+00
       H  5.04520e+00 -7.50514e-01  4.61132e+00
       H  6.75658e+00 -7.16159e-01  4.09977e+00
       H  5.65943e+00 -2.00010e+00  3.54150e+00
       C  5.29887e+00 -1.31086e-01  2.56936e+00
       O  4.12194e+00 -4.29091e-02  2.24271e+00
       N  6.33149e+00  4.75525e-01  1.90261e+00
       H  7.25284e+00  3.91951e-01  2.32220e+00
       C  6.25597e+00  1.30814e+00  7.65781e-01
       C  7.34123e+00  2.16410e+00  5.51662e-01
       H  8.17039e+00  2.16768e+00  1.25033e+00
       C  7.36073e+00  3.03932e+00 -5.49604e-01
       H  8.19521e+00  3.71041e+00 -6.81350e-01
       C  5.19510e+00  1.29960e+00 -1.52931e-01
       H  4.36475e+00  6.17340e-01 -2.96195e-02
       C  5.21273e+00  2.16753e+00 -1.25375e+00
       H  4.39412e+00  2.13797e+00 -1.96043e+00
       C  6.28671e+00  3.03775e+00 -1.43659e+00
       O  6.23109e+00  3.91244e+00 -2.51459e+00
       H  7.12994e+00  4.25610e+00 -2.75626e+00
80
# CELL(abcABC):   13.18034    17.29206    24.21758    90.00000    66.14000    90.00000  cell{atomic_unit}  Traj: positions{angstrom} Step:           3  Bead:       0 
       C  8.24445e+00  5.52543e+00  9.61652e+00
       H  8.16116e+00  6.58074e+00  9.39656e+00
       H  7.62074e+00  5.31794e+00  1.04712e+01
       H  9.24105e+00  5.27786e+00  9.98015e+00
       C  7.88014e+00  4.70438e+00  8.41935e+00
       O  6.70900e+00  4.61469e+00  8.10029e+00
       N  8.92424e+00  4.09815e+00  7.76331e+00
       H  9.84556e+00  4.17977e+00  8.18356e+00
       C  8.84787e+00  3.26579e+00  6.62495e+00
       C  7.78592e+00  3.27233e+00  5.70599e+00
       H  6.95590e+00  3.95656e+00  5.82857e+00
       C  7.80347e+00  2.40703e+00  4.60528e+00
       H  6.98496e+00  2.43436e+00  3.89688e+00
       C  9.93336e+00  2.40953e+00  6.40749e+00
       H  1.07615e+01  2.40592e+00  7.10823e+00
       C  9.95190e+00  1.53597e+00  5.30938e+00
       H  1.07863e+01  8.62455e-01  5.17599e+00
       C  8.87691e+00  1.53474e+00  4.41884e+00
       O  8.82001e+00  6.63363e-01  3.34389e+00
       H  9.72261e+00  3.21412e-01  3.10556e+00
       C  6.45749e+00  1.00838e+01  7.92855e+00
       H  5.41193e+00  9.87041e+00  7.61498e+00
       H  7.17666e+00  9.89669e+00  7.12362e+00
       H  6.58071e+00  1.11415e+01  8.17444e+00
       C  6.85803e+00  9.28225e+00  9.14847e+00
       O  8.03237e+00  9.19083e+00  9.47100e+00
       N  5.82123e+00  8.67154e+00  9.81162e+00
       H  4.90018e+00  8.75330e+00  9.39097e+00
       C  5.89794e+00  7.83972e+00  1.09497e+01
       C  4.81216e+00  6.98327e+00  1.11668e+01
       H  3.98391e+00  6.97953e+00  1.04661e+01
       C  4.79354e+00  6.10964e+00  1.22650e+01
       H  3.95903e+00  5.43577e+00  1.23985e+01
       C  6.95967e+00  7.84612e+00  1.18683e+01
       H  7.78969e+00  8.53033e+00  1.17457e+01
       C  6.94212e+00  6.98078e+00  1.29690e+01
       H  7.76064e+00  7.00810e+00  1.36774e+01
       C  5.86856e+00  6.10861e+00  1.31555e+01
       O  5.92521e+00  5.23777e+00  1.42308e+01
       H  5.02285e+00  4.89511e+00  1.44688e+01
       C  3.78318e+00  3.63583e+00  2.08759e+00
       H  4.43684e+00  3.83155e+00  1.22971e+00
       H  3.90147e+00  2.57544e+00  2.31718e+00
       H  2.75136e+00  3.84904e+00  1.77619e+00
       C  4.25919e+00  4.44105e+00  3.28954e+00
       O  5.43943e+00  4.52765e+00  3.60831e+00
       N  3.23120e+00  5.05140e+00  3.95543e+00
       H  2.30974e+00  4.96793e+00  3.53330e+00
       C  3.30746e+00  5.88187e+00  5.09158e+00
       C  2.22117e+00  6.73790e+00  5.30864e+00
       H  1.39300e+00  6.74157e+00  4.60799e+00
       C  2.20276e+00  7.61136e+00  6.40680e+00
       H  1.36849e+00  8.28449e+00  6.53998e+00
       C  4.36864e+00  5.87526e+00  6.01006e+00
       H  5.19860e+00  5.19094e+00  5.88759e+00
       C  4.35104e+00  6.74047e+00  7.11092e+00
       H  5.16955e+00  6.71314e+00  7.81931e+00
       C  3.27755e+00  7.61265e+00  7.29748e+00
       O  3.33447e+00  8.48411e+00  8.37236e+00
       H  2.43191e+00  8.82602e+00  8.61069e+00
       C  5.72810e+00 -9.38573e-01  3.77640e+00
       H  5.04626e+00 -7.48553e-01  4.61045e+00
       H  6.75431e+00 -7.15228e-01  4.09827e+00
       H  5.66030e+00 -2.00009e+00  3.53979e+00
       C  5.29867e+00 -1.33908e-01  2.56658e+00
       O  4.12220e+00 -4.44727e-02  2.24663e+00
       N  6.33272e+00  4.76524e-01  1.90369e+00
       H  7.25405e+00  3.94142e-01  2.32505e+00
       C  6.25618e+00  1.30810e+00  7.66665e-01
       C  7.34221e+00  2.16415e+00  5.49382e-01
       H  8.17032e+00  2.16768e+00  1.25005e+00
       C  7.36081e+00  3.03771e+00 -5.48791e-01
       H  8.19516e+00  3.71123e+00 -6.82040e-01
       C  5.19475e+00  1.30157e+00 -1.51901e-01
       H  4.36482e+00  6.17174e-01 -2.94672e-02
       C  5.21235e+00  2.16675e+00 -1.25277e+00
       H  4.39384e+00  2.13940e+00 -1.96117e+00
       C  6.28577e+00  3.03901e+00 -1.43939e+00
       O  6.22827e+00  3.91102e+00 -2.51396e+00
       H  7.13113e+00  4.25219e+00 -2.75257e+00
80
# CELL(abcABC):   13.18034    17.29206    24.21758    90.00000    66.14000    90.00000  cell{atomic_unit}  Traj: positions{angstrom} Step:           4  Bead:       0 
       C  8.26175e+00  5.51823e+00  9.62428e+00
       H  8.16960e+00  6.59731e+00  9.38322e+00
       H  7.59025e+00  5.30329e+00  1.04737e+01
       H  9.27951e+00  5.27929e+00  9.97452e+00
       C  7.86825e+00  4.71378e+00  8.40217e+00
       O  6.69040e+00  4.61141e+00  8.10078e+00
       N  8.92543e+00  4.09603e+00  7.76897e+00
       H  9.85075e+00  4.17145e+00  8.19728e+00
       C  8.85097e+00  3.26483e+00  6.62757e+00
       C  7.78456e+00  3.26723e+00  5.71216e+00
       H  6.95678e+00  3.95636e+00  5.82911e+00
       C  7.80207e+00  2.40688e+00  4.60584e+00
       H  6.98410e+00  2.42888e+00  3.89468e+00
       C  9.93743e+00  2.41242e+00  6.40261e+00
       H  1.07615e+01  2.40545e+00  7.10634e+00
       C  9.95169e+00  1.53787e+00  5.30620e+00
       H  1.07853e+01  8.59956e-01  5.17352e+00
       C  8.87333e+00  1.53534e+00  4.41519e+00
       O  8.81303e+00  6.66854e-01  3.34295e+00
       H  9.72512e+00  3.38605e-01  3.12149e+00
       C  6.45931e+00  1.00835e+01  7.94424e+00
       H  5.44499e+00  9.87734e+00  7.61790e+00
       H  7.15273e+00  9.88371e+00  7.12873e+00
       H  6.56237e+00  1.11371e+01  8.17872e+00
       C  6.86038e+00  9.29378e+00  9.15671e+00
       O  8.03695e+00  9.19446e+00  9.46028e+00
       N  5.81817e+00  8.67015e+00  9.80449e+00
       H  4.89471e+00  8.74395e+00  9.37822e+00
       C  5.89536e+00  7.83879e+00  1.09478e+01
       C  4.80824e+00  6.98620e+00  1.11718e+01
       H  3.98383e+00  6.97886e+00  1.04680e+01
       C  4.79341e+00  6.11139e+00  1.22682e+01
       H  3.95983e+00  5.43278e+00  1.24013e+01
       C  6.96138e+00  7.84130e+00  1.18622e+01
       H  7.78884e+00  8.53021e+00  1.17450e+01
       C  6.94348e+00  6.98071e+00  1.29685e+01
       H  7.76149e+00  7.00264e+00  1.36796e+01
       C  5.87190e+00  6.10947e+00  1.31593e+01
       O  5.93176e+00  5.24208e+00  1.42325e+01
       H  5.02003e+00  4.91225e+00  1.44529e+01
       C  3.79914e+00  3.63404e+00  2.09204e+00
       H  4.43701e+00  3.84322e+00  1.23300e+00
       H  3.88996e+00  2.57742e+00  2.32296e+00
       H  2.77006e+00  3.84840e+00  1.79349e+00
       C  4.24908e+00  4.42927e+00  3.29702e+00
       O  5.43080e+00  4.51735e+00  3.58436e+00
       N  3.22416e+00  5.05766e+00  3.95275e+00
       H  2.30603e+00  4.97805e+00  3.52259e+00
       C  3.30603e+00  5.88498e+00  5.09129e+00
       C  2.21778e+00  6.73476e+00  5.31365e+00
       H  1.39308e+00  6.74199e+00  4.60983e+00
       C  2.20316e+00  7.60910e+00  6.40985e+00
       H  1.36966e+00  8.28646e+00  6.54217e+00
       C  4.37103e+00  5.88038e+00  6.00388e+00
       H  5.19769e+00  5.19106e+00  5.88667e+00
       C  4.35245e+00  6.74062e+00  7.11032e+00
       H  5.17035e+00  6.71864e+00  7.82151e+00
       C  3.28111e+00  7.61186e+00  7.30138e+00
       O  3.34156e+00  8.48073e+00  8.37323e+00
       H  2.42946e+00  8.80876e+00  8.59482e+00
       C  5.72688e+00 -9.39208e-01  3.76894e+00
       H  5.05056e+00 -7.40325e-01  4.60620e+00
       H  6.74572e+00 -7.11073e-01  4.09186e+00
       H  5.66388e+00 -2.00061e+00  3.53262e+00
       C  5.30057e+00 -1.45886e-01  2.55691e+00
       O  4.12094e+00 -5.04252e-02  2.26145e+00
       N  6.33705e+00  4.80045e-01  1.90838e+00
       H  7.25853e+00  4.03702e-01  2.33698e+00
       C  6.25802e+00  1.31032e+00  7.68122e-01
       C  7.34573e+00  2.16113e+00  5.44276e-01
       H  8.17002e+00  2.16792e+00  1.24809e+00
       C  7.36053e+00  3.03563e+00 -5.52082e-01
       H  8.19395e+00  3.71341e+00 -6.84305e-01
       C  5.19255e+00  1.30685e+00 -1.45554e-01
       H  4.36569e+00  6.17325e-01 -2.86780e-02
       C  5.21086e+00  2.16693e+00 -1.25219e+00
       H  4.39298e+00  2.14492e+00 -1.96336e+00
       C  6.28212e+00  3.03842e+00 -1.44334e+00
       O  6.22029e+00  3.90820e+00 -2.51428e+00
       H  7.13288e+00  4.23485e+00 -2.73679e+00
80
# CELL(abcABC):   13.18034    17.29206    24.21758    90.00000    66.14000    90.00000  cell{atomic_unit}  Traj: positions{angstrom} Step:           5  Bead:       0 
       C  8.26662e+00  5.51937e+00  9.62712e+00
       H  8.17412e+00  6.59591e+00  9.38050e+00
       H  7.58354e+00  5.29894e+00  1.04694e+01
       H  9.28825e+00  5.28090e+00  9.97023e+00
       C  7.86705e+00  4.71913e+00  8.40094e+00
       O  6.68619e+00  4.61040e+00  8.10082e+00
       N  8.92448e+00  4.09456e+00  7.76975e+00
       H  9.85019e+00  4.16790e+00  8.20266e+00
       C  8.85182e+00  3.26442e+00  6.62850e+00
       C  7.78424e+00  3.26556e+00  5.71378e+00
       H  6.95727e+00  3.95584e+00  5.82975e+00
       C  7.80091e+00  2.40662e+00  4.60630e+00
       H  6.98372e+00  2.42690e+00  3.89418e+00
       C  9.93869e+00  2.41338e+00  6.40103e+00
       H  1.07621e+01  2.40523e+00  7.10550e+00
       C  9.95148e+00  1.53803e+00  5.30370e+00
       H  1.07844e+01  8.59289e-01  5.17238e+00
       C  8.87201e+00  1.53658e+00  4.41547e+00
       O  8.81178e+00  6.68524e-01  3.34309e+00
       H  9.72559e+00  3.45480e-01  3.12758e+00
       C  6.46172e+00  1.00850e+01  7.94985e+00
       H  5.45122e+00  9.87796e+00  7.61854e+00
       H  7.14600e+00  9.87795e+00  7.12968e+00
       H  6.55586e+00  1.11382e+01  8.18136e+00
       C  6.86071e+00  9.29669e+00  9.16100e+00
       O  8.03891e+00  9.19570e+00  9.45697e+00
       N  5.81727e+00  8.66875e+00  9.80319e+00
       H  4.89394e+00  8.73993e+00  9.37295e+00
       C  5.89452e+00  7.83896e+00  1.09462e+01
       C  4.80702e+00  6.98710e+00  1.11736e+01
       H  3.98327e+00  6.97860e+00  1.04689e+01
       C  4.79356e+00  6.11151e+00  1.22708e+01
       H  3.96069e+00  5.43197e+00  1.24025e+01
       C  6.96190e+00  7.83972e+00  1.18606e+01
       H  7.78846e+00  8.52986e+00  1.17441e+01
       C  6.94465e+00  6.98053e+00  1.29680e+01
       H  7.76183e+00  7.00067e+00  1.36801e+01
       C  5.87308e+00  6.11074e+00  1.31591e+01
       O  5.93266e+00  5.24403e+00  1.42327e+01
       H  5.01938e+00  4.91909e+00  1.44467e+01
       C  3.80270e+00  3.63386e+00  2.09411e+00
       H  4.43831e+00  3.84809e+00  1.23444e+00
       H  3.88634e+00  2.57611e+00  2.32557e+00
       H  2.77501e+00  3.84881e+00  1.79971e+00
       C  4.24648e+00  4.42425e+00  3.29837e+00
       O  5.42949e+00  4.51432e+00  3.57716e+00
       N  3.22182e+00  5.05950e+00  3.95171e+00
       H  2.30408e+00  4.98298e+00  3.51824e+00
       C  3.30505e+00  5.88615e+00  5.09056e+00
       C  2.21663e+00  6.73426e+00  5.31572e+00
       H  1.39266e+00  6.74213e+00  4.61077e+00
       C  2.20346e+00  7.60885e+00  6.41242e+00
       H  1.37059e+00  8.28697e+00  6.54318e+00
       C  4.37212e+00  5.88223e+00  6.00251e+00
       H  5.19741e+00  5.19130e+00  5.88557e+00
       C  4.35381e+00  6.74085e+00  7.10994e+00
       H  5.17066e+00  6.72064e+00  7.82200e+00
       C  3.28239e+00  7.61061e+00  7.30119e+00
       O  3.34297e+00  8.47917e+00  8.37299e+00
       H  2.42906e+00  8.80184e+00  8.58879e+00
       C  5.72661e+00 -9.40051e-01  3.76642e+00
       H  5.05206e+00 -7.36955e-01  4.60369e+00
       H  6.74359e+00 -7.09031e-01  4.08911e+00
       H  5.66527e+00 -2.00136e+00  3.52977e+00
       C  5.30148e+00 -1.50454e-01  2.55445e+00
       O  4.12034e+00 -5.23796e-02  2.26611e+00
       N  6.33828e+00  4.81624e-01  1.90938e+00
       H  7.25949e+00  4.08065e-01  2.34180e+00
       C  6.25878e+00  1.31094e+00  7.69284e-01
       C  7.34683e+00  2.16039e+00  5.42392e-01
       H  8.17046e+00  2.16802e+00  1.24715e+00
       C  7.36019e+00  3.03538e+00 -5.54698e-01
       H  8.19290e+00  3.71383e+00 -6.85296e-01
       C  5.19170e+00  1.30867e+00 -1.44009e-01
       H  4.36603e+00  6.17665e-01 -2.77353e-02
       C  5.20957e+00  2.16720e+00 -1.25176e+00
       H  4.39260e+00  2.14692e+00 -1.96385e+00
       C  6.28074e+00  3.03713e+00 -1.44305e+00
       O  6.21839e+00  3.90674e+00 -2.51371e+00
       H  7.13285e+00  4.22785e+00 -2.73092e+00
80
# CELL(abcABC):   13.18034    17.29206    24.21758    90.00000    66.14000    90.00000  cell{atomic_unit}  Traj: positions{angstrom} Step:           6  Bead:       0 
       C  8.27506e+00  5.52263e+00  9.63131e+00
       H  8.18561e+00  6.58626e+00  9.37754e+00
       H  7.57572e+00  5.29150e+00  1.04542e+01
       H  9.29929e+00  5.28605e+00  9.95844e+00
       C  7.86510e+00  4.73067e+00  8.40184e+00
       O  6.68555e+00  4.60976e+00  8.10264e+00
       N  8.92169e+00  4.09253e+00  7.77297e+00
       H  9.84450e+00  4.15920e+00  8.21394e+00
       C  8.85235e+00  3.26280e+00  6.62914e+00
       C  7.78378e+00  3.26286e+00  5.71684e+00
       H  6.95854e+00  3.95399e+00  5.83188e+00
       C  7.79770e+00  2.40565e+00  4.60775e+00
       H  6.98261e+00  2.42282e+00  3.89365e+00
       C  9.94119e+00  2.41478e+00  6.39778e+00
       H  1.07644e+01  2.40469e+00  7.10318e+00
       C  9.95114e+00  1.53878e+00  5.29827e+00
       H  1.07818e+01  8.57953e-01  5.16924e+00
       C  8.86877e+00  1.53982e+00  4.41711e+00
       O  8.80991e+00  6.73611e-01  3.34493e+00
       H  9.72714e+00  3.60492e-01  3.14058e+00
       C  6.46569e+00  1.00893e+01  7.96037e+00
       H  5.45756e+00  9.87673e+00  7.62032e+00
       H  7.13514e+00  9.86461e+00  7.13081e+00
       H  6.54279e+00  1.11450e+01  8.18867e+00
       C  6.86057e+00  9.30159e+00  9.17077e+00
       O  8.04375e+00  9.19771e+00  9.45183e+00
       N  5.81581e+00  8.66559e+00  9.80081e+00
       H  4.89460e+00  8.73025e+00  9.36109e+00
       C  5.89292e+00  7.83809e+00  1.09438e+01
       C  4.80486e+00  6.98870e+00  1.11769e+01
       H  3.98130e+00  6.97797e+00  1.04714e+01
       C  4.79387e+00  6.11217e+00  1.22765e+01
       H  3.96326e+00  5.43041e+00  1.24058e+01
       C  6.96262e+00  7.83750e+00  1.18569e+01
       H  7.78760e+00  8.52852e+00  1.17414e+01
       C  6.94783e+00  6.97970e+00  1.29666e+01
       H  7.76285e+00  6.99661e+00  1.36807e+01
       C  5.87609e+00  6.11415e+00  1.31577e+01
       O  5.93366e+00  5.24979e+00  1.42318e+01
       H  5.01715e+00  4.93393e+00  1.44334e+01
       C  3.80751e+00  3.63218e+00  2.09809e+00
       H  4.44240e+00  3.85907e+00  1.23864e+00
       H  3.87958e+00  2.57132e+00  2.33150e+00
       H  2.78183e+00  3.85090e+00  1.81251e+00
       C  4.24202e+00  4.41428e+00  3.30096e+00
       O  5.42937e+00  4.50893e+00  3.56446e+00
       N  3.21774e+00  5.06179e+00  3.94809e+00
       H  2.29958e+00  4.99544e+00  3.50861e+00
       C  3.30317e+00  5.88907e+00  5.08945e+00
       C  2.21415e+00  6.73421e+00  5.32012e+00
       H  1.39113e+00  6.74254e+00  4.61359e+00
       C  2.20392e+00  7.60832e+00  6.41851e+00
       H  1.37315e+00  8.28799e+00  6.54605e+00
       C  4.37407e+00  5.88531e+00  5.99939e+00
       H  5.19692e+00  5.19222e+00  5.88210e+00
       C  4.35761e+00  6.74195e+00  7.10889e+00
       H  5.17177e+00  6.72480e+00  7.82271e+00
       C  3.28580e+00  7.60726e+00  7.29980e+00
       O  3.34532e+00  8.47445e+00  8.37090e+00
       H  2.42784e+00  8.78670e+00  8.57600e+00
       C  5.72685e+00 -9.42771e-01  3.76132e+00
       H  5.05492e+00 -7.29373e-01  4.59701e+00
       H  6.74073e+00 -7.03976e-01  4.08261e+00
       H  5.66833e+00 -2.00395e+00  3.52350e+00
       C  5.30433e+00 -1.59370e-01  2.55005e+00
       O  4.11885e+00 -5.62427e-02  2.27458e+00
       N  6.34004e+00  4.84111e-01  1.91220e+00
       H  7.26009e+00  4.18880e-01  2.35240e+00
       C  6.26000e+00  1.31304e+00  7.70826e-01
       C  7.34894e+00  2.15948e+00  5.38539e-01
       H  8.17213e+00  2.16832e+00  1.24443e+00
       C  7.35946e+00  3.03452e+00 -5.60558e-01
       H  8.18996e+00  3.71449e+00 -6.88064e-01
       C  5.19020e+00  1.31154e+00 -1.40669e-01
       H  4.36671e+00  6.18945e-01 -2.47208e-02
       C  5.20591e+00  2.16823e+00 -1.25043e+00
       H  4.39141e+00  2.15109e+00 -1.96448e+00
       C  6.27711e+00  3.03362e+00 -1.44129e+00
       O  6.21484e+00  3.90215e+00 -2.51076e+00
       H  7.13278e+00  4.21240e+00 -2.71871e+00
80
# CELL(abcABC):   13.18034    17.29206    24.21758    90.00000    66.14000    90.00000  cell{atomic_unit}  Traj: positions{angstrom} Step:           7  Bead:       0 
       C  8.27792e+00  5.52282e+00  9.62999e+00
       H  8.19445e+00  6.57727e+00  9.37777e+00
       H  7.57610e+00  5.28836e+00  1.04404e+01
       H  9.30079e+00  5.29048e+00  9.94922e+00
       C  7.87066e+00  4.73709e+00  8.40527e+00
       O  6.68776e+00  4.61087e+00  8.10487e+00
       N  8.91765e+00  4.09189e+00  7.77563e+00
       H  9.83761e+00  4.15251e+00  8.22163e+00
       C  8.85204e+00  3.26192e+00  6.62995e+00
       C  7.78325e+00  3.26175e+00  5.71792e+00
       H  6.95930e+00  3.95228e+00  5.83416e+00
       C  7.79491e+00  2.40489e+00  4.60935e+00
       H  6.98135e+00  2.42040e+00  3.89386e+00
       C  9.94245e+00  2.41509e+00  6.39586e+00
       H  1.07666e+01  2.40429e+00  7.10096e+00
       C  9.95103e+00  1.53996e+00  5.29532e+00
       H  1.07796e+01  8.57126e-01  5.16630e+00
       C  8.86644e+00  1.54229e+00  4.41905e+00
       O  8.80944e+00  6.78215e-01  3.34726e+00
       H  9.72876e+00  3.70475e-01  3.14888e+00
       C  6.46566e+00  1.00928e+01  7.96491e+00
       H  5.45617e+00  9.87379e+00  7.62262e+00
       H  7.13108e+00  9.85558e+00  7.13176e+00
       H  6.53529e+00  1.11528e+01  8.19464e+00
       C  6.86181e+00  9.30426e+00  9.17651e+00
       O  8.04567e+00  9.19823e+00  9.45059e+00
       N  5.81540e+00  8.66289e+00  9.80028e+00
       H  4.89720e+00  8.72285e+00  9.35284e+00
       C  5.89201e+00  7.83669e+00  1.09431e+01
       C  4.80358e+00  6.98894e+00  1.11789e+01
       H  3.97940e+00  6.97750e+00  1.04740e+01
       C  4.79413e+00  6.11347e+00  1.22795e+01
       H  3.96554e+00  5.42953e+00  1.24089e+01
       C  6.96280e+00  7.83669e+00  1.18550e+01
       H  7.78722e+00  8.52726e+00  1.17386e+01
       C  6.95057e+00  6.97921e+00  1.29647e+01