80
# CELL(abcABC):   13.17884    17.29009    24.21482    90.00000    66.14000    90.00000  cell{atomic_unit}  Traj: positions{atomic_unit} Step:           0  Bead:       0 
       C  1.57303e+01  1.04074e+01  1.82169e+01
       H  1.53980e+01  1.24288e+01  1.77673e+01
       H  1.44248e+01  1.00684e+01  1.97876e+01
       H  1.72898e+01  1.00007e+01  1.88207e+01
       C  1.49368e+01  8.88275e+00  1.59441e+01
       O  1.26659e+01  8.71622e+00  1.52864e+01
       N  1.68419e+01  7.75181e+00  1.46623e+01
       H  1.86033e+01  7.90960e+00  1.54512e+01
       C  1.67150e+01  6.17137e+00  1.25122e+01
       C  1.47182e+01  6.19050e+00  1.07744e+01
       H  1.31433e+01  7.47652e+00  1.10145e+01
       C  1.47518e+01  4.55159e+00  8.71106e+00
       H  1.31976e+01  4.60725e+00  7.36397e+00
       C  1.87668e+01  4.54216e+00  1.21079e+01
       H  2.03387e+01  4.54759e+00  1.34362e+01
       C  1.88023e+01  2.91095e+00  1.00461e+01
       H  2.03875e+01  1.62963e+00  9.78267e+00
       C  1.67762e+01  2.88836e+00  8.34049e+00
       O  1.66752e+01  1.26054e+00  6.33403e+00
       H  1.83743e+01  5.82444e-01  5.84545e+00
       C  1.21347e+01  1.90505e+01  1.49937e+01
       H  1.01972e+01  1.86438e+01  1.43899e+01
       H  1.36291e+01  1.87116e+01  1.34230e+01
       H  1.24670e+01  2.10720e+01  1.54433e+01
       C  1.29282e+01  1.75259e+01  1.72665e+01
       O  1.51991e+01  1.73595e+01  1.79242e+01
       N  1.10232e+01  1.63950e+01  1.85484e+01
       H  9.26178e+00  1.65527e+01  1.77595e+01
       C  1.11500e+01  1.48145e+01  2.06984e+01
       C  9.09830e+00  1.31853e+01  2.11027e+01
       H  7.52637e+00  1.31907e+01  1.97745e+01
       C  9.06279e+00  1.15541e+01  2.31646e+01
       H  7.47758e+00  1.02728e+01  2.34280e+01
       C  1.31469e+01  1.48336e+01  2.24362e+01
       H  1.47218e+01  1.61197e+01  2.21961e+01
       C  1.31134e+01  1.31947e+01  2.44996e+01
       H  1.46676e+01  1.32504e+01  2.58466e+01
       C  1.10890e+01  1.15315e+01  2.48702e+01
       O  1.11900e+01  9.90362e+00  2.68766e+01
       H  9.49090e+00  9.22557e+00  2.73652e+01
       C  7.23839e+00  6.87885e+00  3.92354e+00
       H  8.35487e+00  7.21783e+00  2.35286e+00
       H  7.38171e+00  4.85740e+00  4.37312e+00
       H  5.11194e+00  7.28549e+00  3.31974e+00
       C  8.03188e+00  8.40344e+00  6.19637e+00
       O  1.03027e+01  8.56999e+00  6.85400e+00
       N  6.12681e+00  9.53437e+00  7.47818e+00
       H  4.36540e+00  9.37654e+00  6.68934e+00
       C  6.25363e+00  1.11148e+01  9.62822e+00
       C  4.20190e+00  1.27441e+01  1.00325e+01
       H  2.62999e+00  1.27387e+01  8.70420e+00
       C  4.16636e+00  1.43753e+01  1.20943e+01
       H  2.58119e+00  1.56566e+01  1.23578e+01
       C  8.25049e+00  1.10957e+01  1.13660e+01
       H  9.82542e+00  9.80974e+00  1.11259e+01
       C  8.21693e+00  1.27347e+01  1.34294e+01
       H  9.77113e+00  1.26790e+01  1.47764e+01
       C  6.19251e+00  1.43979e+01  1.38000e+01
       O  6.29351e+00  1.60257e+01  1.58065e+01
       H  4.59440e+00  1.67037e+01  1.62951e+01
       C  1.08340e+01 -1.76429e+00  7.14673e+00
       H  9.52854e+00 -1.42529e+00  8.71740e+00
       H  1.27715e+01 -1.35762e+00  7.75051e+00
       H  1.06907e+01 -3.78575e+00  6.69718e+00
       C  1.00405e+01 -2.39748e-01  4.87388e+00
       O  7.76961e+00 -7.32372e-02  4.21624e+00
       N  1.19455e+01  8.91209e-01  3.59205e+00
       H  1.37069e+01  7.33400e-01  4.38088e+00
       C  1.18187e+01  2.47169e+00  1.44202e+00
       C  1.38704e+01  4.10093e+00  1.03771e+00
       H  1.54423e+01  4.09552e+00  2.36601e+00
       C  1.39059e+01  5.73217e+00 -1.02410e+00
       H  1.54911e+01  7.01352e+00 -1.28752e+00
       C  9.82180e+00  2.45260e+00 -2.95737e-01
       H  8.24687e+00  1.16660e+00 -5.56148e-02
       C  9.85531e+00  4.09154e+00 -2.35910e+00
       H  8.30110e+00  4.03589e+00 -3.70615e+00
       C  1.18797e+01  5.75474e+00 -2.72971e+00
       O  1.17787e+01  7.38257e+00 -4.73615e+00
       H  1.34778e+01  8.06060e+00 -5.22480e+00
80
# CELL(abcABC):   13.17884    17.29009    24.21482    90.00000    66.14000    90.00000  cell{atomic_unit}  Traj: positions{atomic_unit} Step:           1  Bead:       0 
       C  1.56394e+01  1.04339e+01  1.81905e+01
       H  1.54093e+01  1.24218e+01  1.77677e+01
       H  1.44253e+01  1.00635e+01  1.97843e+01
       H  1.73705e+01  9.98537e+00  1.88446e+01
       C  1.48850e+01  8.88298e+00  1.59266e+01
       O  1.27048e+01  8.72165e+00  1.53046e+01
       N  1.68636e+01  7.74638e+00  1.46643e+01
       H  1.85993e+01  7.90637e+00  1.54524e+01
       C  1.67143e+01  6.17116e+00  1.25132e+01
       C  1.47165e+01  6.19045e+00  1.07789e+01
       H  1.31441e+01  7.47628e+00  1.10142e+01
       C  1.47492e+01  4.54740e+00  8.70314e+00
       H  1.31994e+01  4.60574e+00  7.36560e+00
       C  1.87685e+01  4.54973e+00  1.21139e+01
       H  2.03370e+01  4.54698e+00  1.34342e+01
       C  1.88042e+01  2.90194e+00  1.00351e+01
       H  2.03848e+01  1.63156e+00  9.78328e+00
       C  1.67773e+01  2.89917e+00  8.35326e+00
       O  1.66755e+01  1.25278e+00  6.32342e+00
       H  1.83706e+01  5.90638e-01  5.85273e+00
       C  1.21707e+01  1.90558e+01  1.49790e+01
       H  1.01987e+01  1.86454e+01  1.43885e+01
       H  1.36014e+01  1.87107e+01  1.34428e+01
       H  1.24567e+01  2.10645e+01  1.54444e+01
       C  1.29792e+01  1.75273e+01  1.72851e+01
       O  1.51602e+01  1.73649e+01  1.79062e+01
       N  1.10016e+01  1.63898e+01  1.85460e+01
       H  9.26572e+00  1.65495e+01  1.77583e+01
       C  1.11508e+01  1.48143e+01  2.06975e+01
       C  9.09659e+00  1.31929e+01  2.10967e+01
       H  7.52797e+00  1.31901e+01  1.97765e+01
       C  9.06086e+00  1.15451e+01  2.31756e+01
       H  7.48016e+00  1.02744e+01  2.34275e+01
       C  1.31486e+01  1.48336e+01  2.24317e+01
       H  1.47210e+01  1.61194e+01  2.21964e+01
       C  1.31159e+01  1.31905e+01  2.45075e+01
       H  1.46657e+01  1.32489e+01  2.58450e+01
       C  1.10878e+01  1.15423e+01  2.48574e+01
       O  1.11893e+01  9.89620e+00  2.68874e+01
       H  9.49458e+00  9.23377e+00  2.73579e+01
       C  7.17463e+00  6.87453e+00  3.93233e+00
       H  8.37269e+00  7.22664e+00  2.33476e+00
       H  7.38174e+00  4.86104e+00  4.37447e+00
       H  5.15484e+00  7.27876e+00  3.33362e+00
       C  8.08641e+00  8.40277e+00  6.21325e+00
       O  1.02638e+01  8.56438e+00  6.83597e+00
       N  6.10524e+00  9.53941e+00  7.47565e+00
       H  4.36936e+00  9.37977e+00  6.68809e+00
       C  6.25448e+00  1.11151e+01  9.62726e+00
       C  4.20021e+00  1.27365e+01  1.00265e+01
       H  2.63165e+00  1.27393e+01  8.70625e+00
       C  4.16448e+00  1.43843e+01  1.21053e+01
       H  2.58417e+00  1.56543e+01  1.23570e+01
       C  8.25221e+00  1.10958e+01  1.13615e+01
       H  9.82465e+00  9.80998e+00  1.11262e+01
       C  8.21947e+00  1.27389e+01  1.34373e+01
       H  9.76928e+00  1.26805e+01  1.47748e+01
       C  6.19140e+00  1.43870e+01  1.37872e+01
       O  6.29317e+00  1.60334e+01  1.58171e+01
       H  4.59805e+00  1.66955e+01  1.62878e+01
       C  1.08335e+01 -1.77061e+00  7.14623e+00
       H  9.53068e+00 -1.42210e+00  8.71583e+00
       H  1.27701e+01 -1.35605e+00  7.74962e+00
       H  1.06924e+01 -3.78212e+00  6.69527e+00
       C  9.98769e+00 -2.41156e-01  4.85590e+00
       O  7.80853e+00 -7.88651e-02  4.23423e+00
       N  1.19671e+01  8.96354e-01  3.59434e+00
       H  1.37030e+01  7.36640e-01  4.38214e+00
       C  1.18178e+01  2.47197e+00  1.44297e+00
       C  1.38721e+01  4.09335e+00  1.04371e+00
       H  1.54406e+01  4.09607e+00  2.36393e+00
       C  1.39078e+01  5.74116e+00 -1.03510e+00
       H  1.54883e+01  7.01160e+00 -1.28691e+00
       C  9.82008e+00  2.45271e+00 -2.91192e-01
       H  8.24763e+00  1.16683e+00 -5.59543e-02
       C  9.85276e+00  4.09574e+00 -2.36699e+00
       H  8.30294e+00  4.03740e+00 -3.70452e+00
       C  1.18808e+01  5.74396e+00 -2.71695e+00
       O  1.17785e+01  7.39065e+00 -4.74662e+00
       H  1.34741e+01  8.05240e+00 -5.21754e+00
80
# CELL(abcABC):   13.17884    17.29009    24.21482    90.00000    66.14000    90.00000  cell{atomic_unit}  Traj: positions{atomic_unit} Step:           2  Bead:       0 
       C  1.55739e+01  1.04465e+01  1.81701e+01
       H  1.54187e+01  1.24251e+01  1.77638e+01
       H  1.44164e+01  1.00565e+01  1.97848e+01
       H  1.74417e+01  9.97376e+00  1.88609e+01
       C  1.48977e+01  8.88671e+00  1.59204e+01
       O  1.26872e+01  8.72189e+00  1.53067e+01
       N  1.68635e+01  7.74487e+00  1.46671e+01
       H  1.86022e+01  7.90237e+00  1.54586e+01
       C  1.67187e+01  6.17110e+00  1.25172e+01
       C  1.47138e+01  6.18739e+00  1.07810e+01
       H  1.31446e+01  7.47650e+00  1.10142e+01
       C  1.47471e+01  4.54713e+00  8.70088e+00
       H  1.32002e+01  4.60295e+00  7.36546e+00
       C  1.87694e+01  4.55350e+00  1.21127e+01
       H  2.03364e+01  4.54663e+00  1.34331e+01
       C  1.88062e+01  2.89957e+00  1.00317e+01
       H  2.03832e+01  1.63146e+00  9.78259e+00
       C  1.67767e+01  2.90263e+00  8.35556e+00
       O  1.66725e+01  1.25048e+00  6.31805e+00
       H  1.83704e+01  6.00138e-01  5.86169e+00
       C  1.22027e+01  1.90566e+01  1.49760e+01
       H  1.02095e+01  1.86484e+01  1.43886e+01
       H  1.35740e+01  1.87076e+01  1.34586e+01
       H  1.24443e+01  2.10574e+01  1.54458e+01
       C  1.29572e+01  1.75348e+01  1.72849e+01
       O  1.51778e+01  1.73664e+01  1.79029e+01
       N  1.10026e+01  1.63877e+01  1.85444e+01
       H  9.26281e+00  1.65454e+01  1.77521e+01
       C  1.11464e+01  1.48144e+01  2.06935e+01
       C  9.09563e+00  1.31966e+01  2.10979e+01
       H  7.52857e+00  1.31896e+01  1.97776e+01
       C  9.05882e+00  1.15426e+01  2.31790e+01
       H  7.48156e+00  1.02740e+01  2.34283e+01
       C  1.31513e+01  1.48305e+01  2.24296e+01
       H  1.47205e+01  1.61197e+01  2.21965e+01
       C  1.31180e+01  1.31902e+01  2.45097e+01
       H  1.46650e+01  1.32461e+01  2.58452e+01
       C  1.10884e+01  1.15459e+01  2.48551e+01
       O  1.11919e+01  9.89440e+00  2.68930e+01
       H  9.49472e+00  9.24323e+00  2.73490e+01
       C  7.14222e+00  6.87242e+00  3.94320e+00
       H  8.38448e+00  7.23524e+00  2.32262e+00
       H  7.37823e+00  4.86491e+00  4.37641e+00
       H  5.18937e+00  7.27422e+00  3.34829e+00
       C  8.05260e+00  8.39712e+00  6.21160e+00
       O  1.02846e+01  8.56112e+00  6.83065e+00
       N  6.10926e+00  9.54232e+00  7.47544e+00
       H  4.36643e+00  9.38376e+00  6.68189e+00
       C  6.25015e+00  1.11151e+01  9.62303e+00
       C  4.19931e+00  1.27327e+01  1.00277e+01
       H  2.63236e+00  1.27396e+01  8.70735e+00
       C  4.16265e+00  1.43865e+01  1.21087e+01
       H  2.58596e+00  1.56540e+01  1.23575e+01
       C  8.25496e+00  1.10990e+01  1.13593e+01
       H  9.82408e+00  9.80976e+00  1.11262e+01
       C  8.22158e+00  1.27391e+01  1.34395e+01
       H  9.76852e+00  1.26833e+01  1.47749e+01
       C  6.19195e+00  1.43835e+01  1.37850e+01
       O  6.29617e+00  1.60357e+01  1.58225e+01
       H  4.59831e+00  1.66860e+01  1.62788e+01
       C  1.08251e+01 -1.77337e+00  7.13986e+00
       H  9.53405e+00 -1.41827e+00  8.71413e+00
       H  1.27681e+01 -1.35334e+00  7.74744e+00
       H  1.06948e+01 -3.77963e+00  6.69246e+00
       C  1.00135e+01 -2.47706e-01  4.85539e+00
       O  7.78940e+00 -8.11052e-02  4.23811e+00
       N  1.19648e+01  8.98639e-01  3.59542e+00
       H  1.37059e+01  7.40670e-01  4.38832e+00
       C  1.18221e+01  2.47205e+00  1.44713e+00
       C  1.38729e+01  4.08956e+00  1.04250e+00
       H  1.54398e+01  4.09632e+00  2.36279e+00
       C  1.39098e+01  5.74350e+00 -1.03859e+00
       H  1.54867e+01  7.01165e+00 -1.28756e+00
       C  9.81730e+00  2.45591e+00 -2.88999e-01
       H  8.24819e+00  1.16661e+00 -5.59746e-02
       C  9.85064e+00  4.09605e+00 -2.36924e+00
       H  8.30370e+00  4.04019e+00 -3.70466e+00
       C  1.18802e+01  5.74051e+00 -2.71474e+00
       O  1.17750e+01  7.39343e+00 -4.75180e+00
       H  1.34736e+01  8.04284e+00 -5.20857e+00
80
# CELL(abcABC):   13.17884    17.29009    24.21482    90.00000    66.14000    90.00000  cell{atomic_unit}  Traj: positions{atomic_unit} Step:           3  Bead:       0 
       C  1.55798e+01  1.04416e+01  1.81726e+01
       H  1.54224e+01  1.24358e+01  1.77569e+01
       H  1.44011e+01  1.00495e+01  1.97877e+01
       H  1.74630e+01  9.97371e+00  1.88598e+01
       C  1.48914e+01  8.89000e+00  1.59102e+01
       O  1.26782e+01  8.72057e+00  1.53073e+01
       N  1.68643e+01  7.74439e+00  1.46705e+01
       H  1.86054e+01  7.89862e+00  1.54647e+01
       C  1.67200e+01  6.17146e+00  1.25193e+01
       C  1.47132e+01  6.18380e+00  1.07827e+01
       H  1.31447e+01  7.47681e+00  1.10144e+01
       C  1.47464e+01  4.54861e+00  8.70273e+00
       H  1.31997e+01  4.60026e+00  7.36404e+00
       C  1.87713e+01  4.55335e+00  1.21084e+01
       H  2.03363e+01  4.54653e+00  1.34326e+01
       C  1.88064e+01  2.90256e+00  1.00333e+01
       H  2.03832e+01  1.62982e+00  9.78122e+00
       C  1.67749e+01  2.90024e+00  8.35039e+00
       O  1.66673e+01  1.25358e+00  6.31910e+00
       H  1.83730e+01  6.07432e-01  5.86864e+00
       C  1.22029e+01  1.90556e+01  1.49828e+01
       H  1.02271e+01  1.86524e+01  1.43902e+01
       H  1.35619e+01  1.87020e+01  1.34617e+01
       H  1.24357e+01  2.10544e+01  1.54474e+01
       C  1.29597e+01  1.75409e+01  1.72881e+01
       O  1.51789e+01  1.73682e+01  1.78976e+01
       N  1.10005e+01  1.63868e+01  1.85413e+01
       H  9.25999e+00  1.65413e+01  1.77464e+01
       C  1.11455e+01  1.48149e+01  2.06918e+01
       C  9.09368e+00  1.31965e+01  2.11022e+01
       H  7.52850e+00  1.31894e+01  1.97780e+01
       C  9.05849e+00  1.15455e+01  2.31775e+01
       H  7.48148e+00  1.02721e+01  2.34298e+01
       C  1.31519e+01  1.48270e+01  2.24279e+01
       H  1.47204e+01  1.61200e+01  2.21962e+01
       C  1.31187e+01  1.31917e+01  2.45079e+01
       H  1.46655e+01  1.32434e+01  2.58466e+01
       C  1.10900e+01  1.15436e+01  2.48603e+01
       O  1.11971e+01  9.89795e+00  2.68922e+01
       H  9.49182e+00  9.25047e+00  2.73421e+01
       C  7.14917e+00  6.87072e+00  3.94497e+00
       H  8.38441e+00  7.24057e+00  2.32381e+00
       H  7.37272e+00  4.86688e+00  4.37884e+00
       H  5.19932e+00  7.27364e+00  3.35652e+00
       C  8.04863e+00  8.39237e+00  6.21634e+00
       O  1.02790e+01  8.55595e+00  6.81873e+00
       N  6.10610e+00  9.54576e+00  7.47473e+00
       H  4.36477e+00  9.38803e+00  6.67697e+00
       C  6.25020e+00  1.11151e+01  9.62171e+00
       C  4.19741e+00  1.27328e+01  1.00319e+01
       H  2.63239e+00  1.27397e+01  8.70784e+00
       C  4.16262e+00  1.43834e+01  1.21071e+01
       H  2.58607e+00  1.56554e+01  1.23588e+01
       C  8.25554e+00  1.11026e+01  1.13574e+01
       H  9.82394e+00  9.80945e+00  1.11259e+01
       C  8.22227e+00  1.27377e+01  1.34377e+01
       H  9.76902e+00  1.26860e+01  1.47764e+01
       C  6.19367e+00  1.43858e+01  1.37902e+01
       O  6.30133e+00  1.60326e+01  1.58214e+01
       H  4.59570e+00  1.66787e+01  1.62719e+01
       C  1.08246e+01 -1.77363e+00  7.13636e+00
       H  9.53606e+00 -1.41456e+00  8.71248e+00
       H  1.27638e+01 -1.35158e+00  7.74461e+00
       H  1.06964e+01 -3.77960e+00  6.68924e+00
       C  1.00131e+01 -2.53038e-01  4.85013e+00
       O  7.78994e+00 -8.40679e-02  4.24552e+00
       N  1.19671e+01  9.00542e-01  3.59746e+00
       H  1.37082e+01  7.44806e-01  4.39372e+00
       C  1.18225e+01  2.47197e+00  1.44880e+00
       C  1.38748e+01  4.08966e+00  1.03819e+00
       H  1.54397e+01  4.09632e+00  2.36225e+00
       C  1.39099e+01  5.74046e+00 -1.03705e+00
       H  1.54866e+01  7.01319e+00 -1.28886e+00
       C  9.81664e+00  2.45964e+00 -2.87048e-01
       H  8.24832e+00  1.16630e+00 -5.56880e-02
       C  9.84991e+00  4.09458e+00 -2.36738e+00
       H  8.30318e+00  4.04290e+00 -3.70607e+00
       C  1.18784e+01  5.74289e+00 -2.72003e+00
       O  1.17697e+01  7.39077e+00 -4.75058e+00
       H  1.34759e+01  8.03544e+00 -5.20159e+00
80
# CELL(abcABC):   13.17884    17.29009    24.21482    90.00000    66.14000    90.00000  cell{atomic_unit}  Traj: positions{atomic_unit} Step:           4  Bead:       0 
       C  1.56125e+01  1.04280e+01  1.81873e+01
       H  1.54383e+01  1.24671e+01  1.77317e+01
       H  1.43435e+01  1.00218e+01  1.97924e+01
       H  1.75358e+01  9.97642e+00  1.88491e+01
       C  1.48690e+01  8.90779e+00  1.58778e+01
       O  1.26432e+01  8.71445e+00  1.53082e+01
       N  1.68666e+01  7.74039e+00  1.46811e+01
       H  1.86152e+01  7.88287e+00  1.54906e+01
       C  1.67259e+01  6.16963e+00  1.25242e+01
       C  1.47106e+01  6.17416e+00  1.07944e+01
       H  1.31464e+01  7.47645e+00  1.10154e+01
       C  1.47437e+01  4.54833e+00  8.70379e+00
       H  1.31980e+01  4.58988e+00  7.35987e+00
       C  1.87790e+01  4.55881e+00  1.20992e+01
       H  2.03362e+01  4.54563e+00  1.34290e+01
       C  1.88060e+01  2.90617e+00  1.00273e+01
       H  2.03813e+01  1.62511e+00  9.77657e+00
       C  1.67681e+01  2.90141e+00  8.34351e+00
       O  1.66540e+01  1.26016e+00  6.31738e+00
       H  1.83776e+01  6.40020e-01  5.89872e+00
       C  1.22063e+01  1.90551e+01  1.50124e+01
       H  1.02896e+01  1.86655e+01  1.43957e+01
       H  1.35167e+01  1.86775e+01  1.34714e+01
       H  1.24011e+01  2.10459e+01  1.54555e+01
       C  1.29641e+01  1.75627e+01  1.73037e+01
       O  1.51874e+01  1.73751e+01  1.78773e+01
       N  1.09947e+01  1.63841e+01  1.85278e+01
       H  9.24961e+00  1.65237e+01  1.77223e+01
       C  1.11406e+01  1.48131e+01  2.06884e+01
       C  9.08628e+00  1.32020e+01  2.11117e+01
       H  7.52836e+00  1.31881e+01  1.97816e+01
       C  9.05825e+00  1.15488e+01  2.31835e+01
       H  7.48297e+00  1.02665e+01  2.34350e+01
       C  1.31551e+01  1.48178e+01  2.24162e+01
       H  1.47187e+01  1.61197e+01  2.21948e+01
       C  1.31213e+01  1.31916e+01  2.45068e+01
       H  1.46670e+01  1.32330e+01  2.58507e+01
       C  1.10963e+01  1.15452e+01  2.48673e+01
       O  1.12095e+01  9.90605e+00  2.68952e+01
       H  9.48650e+00  9.28294e+00  2.73120e+01
       C  7.17932e+00  6.86734e+00  3.95340e+00
       H  8.38472e+00  7.26263e+00  2.33004e+00
       H  7.35095e+00  4.87061e+00  4.38976e+00
       H  5.23466e+00  7.27242e+00  3.38920e+00
       C  8.02945e+00  8.37008e+00  6.23049e+00
       O  1.02626e+01  8.53639e+00  6.77348e+00
       N  6.09278e+00  9.55759e+00  7.46970e+00
       H  4.35778e+00  9.40718e+00  6.65673e+00
       C  6.24752e+00  1.11210e+01  9.62120e+00
       C  4.19103e+00  1.27269e+01  1.00414e+01
       H  2.63257e+00  1.27405e+01  8.71134e+00
       C  4.16338e+00  1.43791e+01  1.21129e+01
       H  2.58827e+00  1.56591e+01  1.23629e+01
       C  8.26010e+00  1.11123e+01  1.13457e+01
       H  9.82224e+00  9.80968e+00  1.11242e+01
       C  8.22495e+00  1.27379e+01  1.34365e+01
       H  9.77052e+00  1.26964e+01  1.47805e+01
       C  6.20041e+00  1.43843e+01  1.37976e+01
       O  6.31483e+00  1.60263e+01  1.58230e+01
       H  4.59119e+00  1.66460e+01  1.62419e+01
       C  1.08223e+01 -1.77481e+00  7.12226e+00
       H  9.54419e+00 -1.39901e+00  8.70444e+00
       H  1.27476e+01 -1.34372e+00  7.73249e+00
       H  1.07032e+01 -3.78056e+00  6.67569e+00
       C  1.00168e+01 -2.75674e-01  4.83186e+00
       O  7.78767e+00 -9.53522e-02  4.27355e+00
       N  1.19754e+01  9.07255e-01  3.60635e+00
       H  1.37167e+01  7.62868e-01  4.41627e+00
       C  1.18259e+01  2.47621e+00  1.45158e+00
       C  1.38814e+01  4.08399e+00  1.02856e+00
       H  1.54391e+01  4.09677e+00  2.35855e+00
       C  1.39093e+01  5.73656e+00 -1.04322e+00
       H  1.54843e+01  7.01731e+00 -1.29312e+00
       C  9.81246e+00  2.46966e+00 -2.75028e-01
       H  8.24999e+00  1.16659e+00 -5.42007e-02
       C  9.84710e+00  4.09495e+00 -2.36624e+00
       H  8.30156e+00  4.05335e+00 -3.71019e+00
       C  1.18715e+01  5.74179e+00 -2.72743e+00
       O  1.17546e+01  7.38549e+00 -4.75106e+00
       H  1.34792e+01  8.00258e+00 -5.17174e+00
80
# CELL(abcABC):   13.17884    17.29009    24.21482    90.00000    66.14000    90.00000  cell{atomic_unit}  Traj: positions{atomic_unit} Step:           5  Bead:       0 
       C  1.56217e+01  1.04301e+01  1.81926e+01
       H  1.54469e+01  1.24645e+01  1.77266e+01
       H  1.43308e+01  1.00136e+01  1.97844e+01
       H  1.75523e+01  9.97947e+00  1.88410e+01
       C  1.48667e+01  8.91792e+00  1.58754e+01
       O  1.26352e+01  8.71258e+00  1.53083e+01
       N  1.68648e+01  7.73762e+00  1.46826e+01
       H  1.86141e+01  7.87616e+00  1.55008e+01
       C  1.67275e+01  6.16887e+00  1.25260e+01
       C  1.47100e+01  6.17101e+00  1.07974e+01
       H  1.31473e+01  7.47547e+00  1.10166e+01
       C  1.47416e+01  4.54783e+00  8.70468e+00
       H  1.31973e+01  4.58614e+00  7.35894e+00
       C  1.87814e+01  4.56062e+00  1.20962e+01
       H  2.03375e+01  4.54521e+00  1.34274e+01
       C  1.88056e+01  2.90646e+00  1.00225e+01
       H  2.03795e+01  1.62385e+00  9.77443e+00
       C  1.67656e+01  2.90374e+00  8.34406e+00
       O  1.66516e+01  1.26331e+00  6.31769e+00
       H  1.83785e+01  6.53042e-01  5.91023e+00
       C  1.22108e+01  1.90578e+01  1.50231e+01
       H  1.03013e+01  1.86666e+01  1.43969e+01
       H  1.35039e+01  1.86666e+01  1.34732e+01
       H  1.23888e+01  2.10480e+01  1.54605e+01
       C  1.29646e+01  1.75682e+01  1.73118e+01
       O  1.51911e+01  1.73774e+01  1.78711e+01
       N  1.09930e+01  1.63814e+01  1.85253e+01
       H  9.24814e+00  1.65161e+01  1.77123e+01
       C  1.11391e+01  1.48134e+01  2.06852e+01
       C  9.08397e+00  1.32037e+01  2.11149e+01
       H  7.52729e+00  1.31877e+01  1.97833e+01
       C  9.05854e+00  1.15490e+01  2.31883e+01
       H  7.48461e+00  1.02649e+01  2.34373e+01
       C  1.31561e+01  1.48148e+01  2.24132e+01
       H  1.47180e+01  1.61191e+01  2.21932e+01
       C  1.31235e+01  1.31912e+01  2.45059e+01
       H  1.46677e+01  1.32293e+01  2.58517e+01
       C  1.10985e+01  1.15476e+01  2.48669e+01
       O  1.12112e+01  9.90972e+00  2.68956e+01
       H  9.48527e+00  9.29589e+00  2.73003e+01
       C  7.18603e+00  6.86699e+00  3.95729e+00
       H  8.38717e+00  7.27182e+00  2.33277e+00
       H  7.34410e+00  4.86813e+00  4.39470e+00
       H  5.24402e+00  7.27318e+00  3.40095e+00
       C  8.02453e+00  8.36058e+00  6.23306e+00
       O  1.02601e+01  8.53063e+00  6.75990e+00
       N  6.08834e+00  9.56106e+00  7.46776e+00
       H  4.35409e+00  9.41649e+00  6.64853e+00
       C  6.24567e+00  1.11232e+01  9.61983e+00
       C  4.18885e+00  1.27259e+01  1.00453e+01
       H  2.63178e+00  1.27408e+01  8.71312e+00
       C  4.16396e+00  1.43786e+01  1.21177e+01
       H  2.59002e+00  1.56601e+01  1.23648e+01
       C  8.26216e+00  1.11158e+01  1.13431e+01
       H  9.82170e+00  9.81012e+00  1.11221e+01
       C  8.22754e+00  1.27384e+01  1.34358e+01
       H  9.77112e+00  1.27002e+01  1.47814e+01
       C  6.20285e+00  1.43819e+01  1.37972e+01
       O  6.31755e+00  1.60233e+01  1.58225e+01
       H  4.59048e+00  1.66329e+01  1.62305e+01
       C  1.08218e+01 -1.77640e+00  7.11751e+00
       H  9.54703e+00 -1.39263e+00  8.69968e+00
       H  1.27435e+01 -1.33986e+00  7.72730e+00
       H  1.07058e+01 -3.78196e+00  6.67029e+00
       C  1.00186e+01 -2.84302e-01  4.82722e+00
       O  7.78657e+00 -9.90544e-02  4.28236e+00
       N  1.19777e+01  9.10257e-01  3.60824e+00
       H  1.37185e+01  7.71117e-01  4.42536e+00
       C  1.18273e+01  2.47741e+00  1.45379e+00
       C  1.38835e+01  4.08260e+00  1.02502e+00
       H  1.54399e+01  4.09695e+00  2.35677e+00
       C  1.39087e+01  5.73610e+00 -1.04815e+00
       H  1.54823e+01  7.01810e+00 -1.29499e+00
       C  9.81086e+00  2.47310e+00 -2.72099e-01
       H  8.25062e+00  1.16724e+00 -5.24171e-02
       C  9.84465e+00  4.09548e+00 -2.36541e+00
       H  8.30086e+00  4.05714e+00 -3.71112e+00
       C  1.18689e+01  5.73936e+00 -2.72686e+00
       O  1.17510e+01  7.38274e+00 -4.74994e+00
       H  1.34791e+01  7.98934e+00 -5.16064e+00
80
# CELL(abcABC):   13.17884    17.29009    24.21482    90.00000    66.14000    90.00000  cell{atomic_unit}  Traj: positions{atomic_unit} Step:           6  Bead:       0 
       C  1.56377e+01  1.04363e+01  1.82005e+01
       H  1.54686e+01  1.24462e+01  1.77210e+01
       H  1.43161e+01  9.99951e+00  1.97555e+01
       H  1.75732e+01  9.98921e+00  1.88187e+01
       C  1.48631e+01  8.93978e+00  1.58771e+01
       O  1.26341e+01  8.71145e+00  1.53117e+01
       N  1.68596e+01  7.73380e+00  1.46886e+01
       H  1.86034e+01  7.85968e+00  1.55220e+01
       C  1.67285e+01  6.16582e+00  1.25272e+01
       C  1.47092e+01  6.16591e+00  1.08032e+01
       H  1.31497e+01  7.47199e+00  1.10206e+01
       C  1.47355e+01  4.54600e+00  8.70742e+00
       H  1.31952e+01  4.57841e+00  7.35792e+00
       C  1.87861e+01  4.56328e+00  1.20900e+01
       H  2.03418e+01  4.54418e+00  1.34230e+01
       C  1.88049e+01  2.90788e+00  1.00123e+01
       H  2.03746e+01  1.62133e+00  9.76851e+00
       C  1.67595e+01  2.90986e+00  8.34718e+00
       O  1.66480e+01  1.27292e+00  6.32122e+00
       H  1.83813e+01  6.81498e-01  5.93476e+00
       C  1.22183e+01  1.90659e+01  1.50429e+01
       H  1.03133e+01  1.86643e+01  1.44003e+01
       H  1.34834e+01  1.86414e+01  1.34753e+01
       H  1.23640e+01  2.10609e+01  1.54744e+01
       C  1.29643e+01  1.75774e+01  1.73302e+01
       O  1.52002e+01  1.73812e+01  1.78613e+01
       N  1.09902e+01  1.63754e+01  1.85208e+01
       H  9.24934e+00  1.64978e+01  1.76899e+01
       C  1.11360e+01  1.48117e+01  2.06808e+01
       C  9.07991e+00  1.32066e+01  2.11212e+01
       H  7.52356e+00  1.31865e+01  1.97881e+01
       C  9.05914e+00  1.15502e+01  2.31990e+01
       H  7.48946e+00  1.02620e+01  2.34435e+01
       C  1.31575e+01  1.48106e+01  2.24063e+01
       H  1.47164e+01  1.61165e+01  2.21880e+01
       C  1.31295e+01  1.31896e+01  2.45031e+01
       H  1.46696e+01  1.32216e+01  2.58527e+01
       C  1.11042e+01  1.15540e+01  2.48643e+01
       O  1.12131e+01  9.92056e+00  2.68938e+01
       H  9.48106e+00  9.32400e+00  2.72751e+01
       C  7.19509e+00  6.86381e+00  3.96483e+00
       H  8.39489e+00  7.29258e+00  2.34072e+00
       H  7.33132e+00  4.85907e+00  4.40590e+00
       H  5.25689e+00  7.27714e+00  3.42514e+00
       C  8.01607e+00  8.34169e+00  6.23798e+00
       O  1.02598e+01  8.52037e+00  6.73591e+00
       N  6.08063e+00  9.56537e+00  7.46095e+00
       H  4.34558e+00  9.44009e+00  6.63035e+00
       C  6.24214e+00  1.11287e+01  9.61775e+00
       C  4.18419e+00  1.27258e+01  1.00536e+01
       H  2.62890e+00  1.27416e+01  8.71845e+00
       C  4.16483e+00  1.43776e+01  1.21292e+01
       H  2.59486e+00  1.56620e+01  1.23702e+01
       C  8.26587e+00  1.11216e+01  1.13372e+01
       H  9.82079e+00  9.81184e+00  1.11156e+01
       C  8.23474e+00  1.27405e+01  1.34338e+01
       H  9.77321e+00  1.27081e+01  1.47828e+01
       C  6.20932e+00  1.43756e+01  1.37946e+01
       O  6.32209e+00  1.60144e+01  1.58185e+01
       H  4.58826e+00  1.66042e+01  1.62064e+01
       C  1.08223e+01 -1.78154e+00  7.10787e+00
       H  9.55246e+00 -1.37829e+00  8.68704e+00
       H  1.27382e+01 -1.33029e+00  7.71503e+00
       H  1.07116e+01 -3.78684e+00  6.65843e+00
       C  1.00240e+01 -3.01158e-01  4.81892e+00
       O  7.78381e+00 -1.06376e-01  4.29838e+00
       N  1.19811e+01  9.14992e-01  3.61359e+00
       H  1.37197e+01  7.91589e-01  4.44540e+00
       C  1.18297e+01  2.48143e+00  1.45674e+00
       C  1.38874e+01  4.08093e+00  1.01777e+00
       H  1.54431e+01  4.09753e+00  2.35166e+00
       C  1.39073e+01  5.73450e+00 -1.05918e+00
       H  1.54768e+01  7.01935e+00 -1.30020e+00
       C  9.80802e+00  2.47856e+00 -2.65749e-01
       H  8.25191e+00  1.16967e+00 -4.67114e-02
       C  9.83773e+00  4.09745e+00 -2.36287e+00
       H  8.29862e+00  4.06505e+00 -3.71230e+00
       C  1.18620e+01  5.73274e+00 -2.72348e+00
       O  1.17442e+01  7.37413e+00 -4.74425e+00
       H  1.34790e+01  7.96006e+00 -5.13752e+00
80
# CELL(abcABC):   13.17884    17.29009    24.21482    90.00000    66.14000    90.00000  cell{atomic_unit}  Traj: positions{atomic_unit} Step:           7  Bead:       0 
       C  1.56431e+01  1.04366e+01  1.81980e+01
       H  1.54853e+01  1.24292e+01  1.77214e+01
       H  1.43168e+01  9.99357e+00  1.97294e+01
       H  1.75760e+01  9.99760e+00  1.88013e+01
       C  1.48736e+01  8.95197e+00  1.58836e+01
       O  1.26383e+01  8.71361e+00  1.53158e+01
       N  1.68519e+01  7.73260e+00  1.46937e+01
       H  1.85904e+01  7.84700e+00  1.55366e+01
       C  1.67279e+01  6.16417e+00  1.25287e+01
       C  1.47081e+01  6.16381e+00  1.08053e+01
       H  1.31511e+01  7.46876e+00  1.10249e+01
       C  1.47302e+01  4.54455e+00  8.71045e+00
       H  1.31928e+01  4.57381e+00  7.35832e+00
       C  1.87885e+01  4.56386e+00  1.20864e+01
       H  2.03459e+01  4.54342e+00  1.34188e+01
       C  1.88047e+01  2.91013e+00  1.00067e+01
       H  2.03705e+01  1.61977e+00  9.76295e+00
       C  1.67550e+01  2.91455e+00  8.35086e+00
       O  1.66470e+01  1.28161e+00  6.32568e+00
       H  1.83843e+01  7.00460e-01  5.95045e+00
       C  1.22182e+01  1.90726e+01  1.50515e+01
       H  1.03106e+01  1.86587e+01  1.44046e+01
       H  1.34757e+01  1.86243e+01  1.34771e+01
       H  1.23498e+01  2.10757e+01  1.54857e+01
       C  1.29666e+01  1.75825e+01  1.73411e+01
       O  1.52038e+01  1.73822e+01  1.78590e+01
       N  1.09893e+01  1.63703e+01  1.85198e+01
       H  9.25422e+00  1.64837e+01  1.76743e+01
       C  1.11343e+01  1.48090e+01  2.06794e+01
       C  9.07747e+00  1.32071e+01  2.11249e+01
       H  7.51996e+00  1.31856e+01  1.97929e+01
       C  9.05963e+00  1.15527e+01  2.32047e+01
       H  7.49378e+00  1.02603e+01  2.34493e+01
       C  1.31578e+01  1.48091e+01  2.24026e+01
       H  1.47157e+01  1.61142e+01  2.21827e+01
       C  1.31347e+01  1.31887e+01  2.44996e+01