80
# CELL(abcABC):   13.18034    17.29206    24.21758    90.00000    66.14000    90.00000  cell{atomic_unit}  Traj: positions{angstrom} Step:           0  Bead:       0 
       C  8.32411e+00  5.50734e+00  9.63997e+00
       H  8.14828e+00  6.57705e+00  9.40205e+00
       H  7.63329e+00  5.32799e+00  1.04711e+01
       H  9.14937e+00  5.29216e+00  9.95950e+00
       C  7.90421e+00  4.70055e+00  8.43726e+00
       O  6.70253e+00  4.61243e+00  8.08924e+00
       N  8.91233e+00  4.10208e+00  7.75895e+00
       H  9.84443e+00  4.18558e+00  8.17641e+00
       C  8.84522e+00  3.26575e+00  6.62119e+00
       C  7.78854e+00  3.27587e+00  5.70159e+00
       H  6.95513e+00  3.95640e+00  5.82864e+00
       C  7.80630e+00  2.40860e+00  4.60969e+00
       H  6.98386e+00  2.43805e+00  3.89684e+00
       C  9.93096e+00  2.40361e+00  6.40724e+00
       H  1.07628e+01  2.40648e+00  7.11015e+00
       C  9.94977e+00  1.54041e+00  5.31616e+00
       H  1.07886e+01  8.62363e-01  5.17676e+00
       C  8.87757e+00  1.52845e+00  4.41359e+00
       O  8.82412e+00  6.67051e-01  3.35182e+00
       H  9.72324e+00  3.08216e-01  3.09328e+00
       C  6.42142e+00  1.00811e+01  7.93434e+00
       H  5.39615e+00  9.86590e+00  7.61483e+00
       H  7.21223e+00  9.90173e+00  7.10317e+00
       H  6.59724e+00  1.11508e+01  8.17225e+00
       C  6.84133e+00  9.27432e+00  9.13706e+00
       O  8.04301e+00  9.18623e+00  9.48509e+00
       N  5.83322e+00  8.67584e+00  9.81537e+00
       H  4.90112e+00  8.75933e+00  9.39793e+00
       C  5.90034e+00  7.83952e+00  1.09531e+01
       C  4.81461e+00  6.97736e+00  1.11671e+01
       H  3.98278e+00  6.98024e+00  1.04642e+01
       C  4.79582e+00  6.11415e+00  1.22582e+01
       H  3.95697e+00  5.43611e+00  1.23976e+01
       C  6.95704e+00  7.84962e+00  1.18727e+01
       H  7.79045e+00  8.53016e+00  1.17457e+01
       C  6.93929e+00  6.98233e+00  1.29646e+01
       H  7.76174e+00  7.01179e+00  1.36775e+01
       C  5.86802e+00  6.10220e+00  1.31607e+01
       O  5.92150e+00  5.24077e+00  1.42225e+01
       H  5.02237e+00  4.88196e+00  1.44810e+01
       C  3.83039e+00  3.64013e+00  2.07625e+00
       H  4.42121e+00  3.81951e+00  1.24508e+00
       H  3.90623e+00  2.57042e+00  2.31415e+00
       H  2.70512e+00  3.85531e+00  1.75673e+00
       C  4.25029e+00  4.44691e+00  3.27898e+00
       O  5.45197e+00  4.53505e+00  3.62698e+00
       N  3.24217e+00  5.04537e+00  3.95728e+00
       H  2.31007e+00  4.96185e+00  3.53985e+00
       C  3.30928e+00  5.88172e+00  5.09504e+00
       C  2.22355e+00  6.74388e+00  5.30898e+00
       H  1.39173e+00  6.74102e+00  4.60606e+00
       C  2.20474e+00  7.60708e+00  6.40005e+00
       H  1.36590e+00  8.28514e+00  6.53944e+00
       C  4.36597e+00  5.87161e+00  6.01463e+00
       H  5.19939e+00  5.19109e+00  5.88757e+00
       C  4.34821e+00  6.73889e+00  7.10652e+00
       H  5.17066e+00  6.70944e+00  7.81936e+00
       C  3.27694e+00  7.61902e+00  7.30263e+00
       O  3.33038e+00  8.48041e+00  8.36441e+00
       H  2.43125e+00  8.83923e+00  8.62297e+00
       C  5.73310e+00 -9.33623e-01  3.78188e+00
       H  5.04229e+00 -7.54231e-01  4.61305e+00
       H  6.75837e+00 -7.18422e-01  4.10139e+00
       H  5.65726e+00 -2.00333e+00  3.54399e+00
       C  5.31318e+00 -1.26869e-01  2.57915e+00
       O  4.11150e+00 -3.87555e-02  2.23114e+00
       N  6.32129e+00  4.71607e-01  1.90083e+00
       H  7.25340e+00  3.88098e-01  2.31826e+00
       C  6.25417e+00  1.30796e+00  7.63085e-01
       C  7.33989e+00  2.17012e+00  5.49131e-01
       H  8.17172e+00  2.16726e+00  1.25204e+00
       C  7.35869e+00  3.03333e+00 -5.41932e-01
       H  8.19753e+00  3.71140e+00 -6.81326e-01
       C  5.19747e+00  1.29786e+00 -1.56497e-01
       H  4.36406e+00  6.17340e-01 -2.94301e-02
       C  5.21521e+00  2.16515e+00 -1.24838e+00
       H  4.39275e+00  2.13570e+00 -1.96121e+00
       C  6.28648e+00  3.04528e+00 -1.44450e+00
       O  6.23302e+00  3.90669e+00 -2.50626e+00
       H  7.13215e+00  4.26548e+00 -2.76485e+00
80
# CELL(abcABC):   13.18034    17.29206    24.21758    90.00000    66.14000    90.00000  cell{atomic_unit}  Traj: positions{angstrom} Step:           1  Bead:       0 
       C  8.27604e+00  5.52136e+00  9.62600e+00
       H  8.15423e+00  6.57333e+00  9.40225e+00
       H  7.63356e+00  5.32540e+00  1.04694e+01
       H  9.19209e+00  5.28403e+00  9.97213e+00
       C  7.87678e+00  4.70067e+00  8.42801e+00
       O  6.72310e+00  4.61529e+00  8.09884e+00
       N  8.92385e+00  4.09921e+00  7.76005e+00
       H  9.84233e+00  4.18387e+00  8.17706e+00
       C  8.84480e+00  3.26564e+00  6.62168e+00
       C  7.78764e+00  3.27585e+00  5.70397e+00
       H  6.95553e+00  3.95628e+00  5.82846e+00
       C  7.80495e+00  2.40638e+00  4.60550e+00
       H  6.98484e+00  2.43725e+00  3.89771e+00
       C  9.93186e+00  2.40761e+00  6.41043e+00
       H  1.07619e+01  2.40616e+00  7.10907e+00
       C  9.95078e+00  1.53564e+00  5.31035e+00
       H  1.07872e+01  8.63380e-01  5.17709e+00
       C  8.87815e+00  1.53417e+00  4.42036e+00
       O  8.82430e+00  6.62936e-01  3.34620e+00
       H  9.72131e+00  3.12546e-01  3.09714e+00
       C  6.44045e+00  1.00839e+01  7.92653e+00
       H  5.39690e+00  9.86670e+00  7.61406e+00
       H  7.19755e+00  9.90130e+00  7.11363e+00
       H  6.59182e+00  1.11468e+01  8.17285e+00
       C  6.86830e+00  9.27506e+00  9.14688e+00
       O  8.02246e+00  9.18913e+00  9.47553e+00
       N  5.82182e+00  8.67311e+00  9.81414e+00
       H  4.90321e+00  8.75762e+00  9.39726e+00
       C  5.90076e+00  7.83940e+00  1.09527e+01
       C  4.81371e+00  6.98136e+00  1.11639e+01
       H  3.98363e+00  6.97989e+00  1.04653e+01
       C  4.79480e+00  6.10939e+00  1.22640e+01
       H  3.95833e+00  5.43698e+00  1.23973e+01
       C  6.95794e+00  7.84959e+00  1.18703e+01
       H  7.79005e+00  8.53004e+00  1.17459e+01
       C  6.94065e+00  6.98012e+00  1.29688e+01
       H  7.76076e+00  7.01099e+00  1.36766e+01
       C  5.86743e+00  6.10794e+00  1.31540e+01
       O  5.92110e+00  5.23684e+00  1.42282e+01
       H  5.02432e+00  4.88630e+00  1.44772e+01
       C  3.79665e+00  3.63784e+00  2.08090e+00
       H  4.43064e+00  3.82418e+00  1.23550e+00
       H  3.90625e+00  2.57235e+00  2.31487e+00
       H  2.72782e+00  3.85176e+00  1.76407e+00
       C  4.27915e+00  4.44656e+00  3.28790e+00
       O  5.43138e+00  4.53209e+00  3.61744e+00
       N  3.23074e+00  5.04804e+00  3.95593e+00
       H  2.31217e+00  4.96356e+00  3.53919e+00
       C  3.30973e+00  5.88187e+00  5.09453e+00
       C  2.22265e+00  6.73988e+00  5.30579e+00
       H  1.39261e+00  6.74134e+00  4.60715e+00
       C  2.20375e+00  7.61183e+00  6.40586e+00
       H  1.36748e+00  8.28392e+00  6.53905e+00
       C  4.36688e+00  5.87166e+00  6.01222e+00
       H  5.19898e+00  5.19122e+00  5.88775e+00
       C  4.34956e+00  6.74111e+00  7.11070e+00
       H  5.16968e+00  6.71024e+00  7.81849e+00
       C  3.27635e+00  7.61330e+00  7.29588e+00
       O  3.33018e+00  8.48452e+00  8.37005e+00
       H  2.43318e+00  8.83490e+00  8.61912e+00
       C  5.73284e+00 -9.36970e-01  3.78162e+00
       H  5.04342e+00 -7.52543e-01  4.61222e+00
       H  6.75766e+00 -7.17594e-01  4.10093e+00
       H  5.65815e+00 -2.00142e+00  3.54298e+00
       C  5.28525e+00 -1.27617e-01  2.56963e+00
       O  4.13208e+00 -4.17287e-02  2.24066e+00
       N  6.33269e+00  4.74324e-01  1.90204e+00
       H  7.25131e+00  3.89815e-01  2.31893e+00
       C  6.25372e+00  1.30811e+00  7.63584e-01
       C  7.34078e+00  2.16610e+00  5.52307e-01
       H  8.17082e+00  2.16755e+00  1.25094e+00
       C  7.35970e+00  3.03809e+00 -5.47755e-01
       H  8.19607e+00  3.71038e+00 -6.81003e-01
       C  5.19656e+00  1.29791e+00 -1.54091e-01
       H  4.36445e+00  6.17458e-01 -2.96096e-02
       C  5.21385e+00  2.16737e+00 -1.25256e+00
       H  4.39372e+00  2.13650e+00 -1.96035e+00
       C  6.28705e+00  3.03957e+00 -1.43775e+00
       O  6.23294e+00  3.91097e+00 -2.51182e+00
       H  7.13020e+00  4.26115e+00 -2.76100e+00
80
# CELL(abcABC):   13.18034    17.29206    24.21758    90.00000    66.14000    90.00000  cell{atomic_unit}  Traj: positions{angstrom} Step:           2  Bead:       0 
       C  8.25334e+00  5.52573e+00  9.61893e+00
       H  8.15751e+00  6.57447e+00  9.40090e+00
       H  7.63045e+00  5.32295e+00  1.04696e+01
       H  9.21674e+00  5.28001e+00  9.97779e+00
       C  7.88123e+00  4.70197e+00  8.42586e+00
       O  6.71694e+00  4.61536e+00  8.09956e+00
       N  8.92379e+00  4.09869e+00  7.76099e+00
       H  9.84335e+00  4.18249e+00  8.17920e+00
       C  8.84634e+00  3.26562e+00  6.62307e+00
       C  7.78670e+00  3.27478e+00  5.70469e+00
       H  6.95573e+00  3.95635e+00  5.82845e+00
       C  7.80423e+00  2.40629e+00  4.60472e+00
       H  6.98510e+00  2.43629e+00  3.89766e+00
       C  9.93218e+00  2.40892e+00  6.41000e+00
       H  1.07617e+01  2.40604e+00  7.10869e+00
       C  9.95145e+00  1.53482e+00  5.30916e+00
       H  1.07866e+01  8.63345e-01  5.17685e+00
       C  8.87794e+00  1.53537e+00  4.42115e+00
       O  8.82328e+00  6.62144e-01  3.34433e+00
       H  9.72123e+00  3.15833e-01  3.10025e+00
       C  6.45153e+00  1.00842e+01  7.92549e+00
       H  5.40065e+00  9.86776e+00  7.61411e+00
       H  7.18806e+00  9.90022e+00  7.11909e+00
       H  6.58752e+00  1.11444e+01  8.17332e+00
       C  6.86064e+00  9.27764e+00  9.14680e+00
       O  8.02859e+00  9.18964e+00  9.47440e+00
       N  5.82218e+00  8.67241e+00  9.81357e+00
       H  4.90220e+00  8.75621e+00  9.39512e+00
       C  5.89923e+00  7.83945e+00  1.09513e+01
       C  4.81337e+00  6.98266e+00  1.11643e+01
       H  3.98384e+00  6.97973e+00  1.04656e+01
       C  4.79409e+00  6.10855e+00  1.22652e+01
       H  3.95882e+00  5.43684e+00  1.23976e+01
       C  6.95888e+00  7.84853e+00  1.18696e+01
       H  7.78986e+00  8.53012e+00  1.17459e+01
       C  6.94138e+00  6.98004e+00  1.29696e+01
       H  7.76050e+00  7.01003e+00  1.36766e+01
       C  5.86761e+00  6.10916e+00  1.31532e+01
       O  5.92202e+00  5.23622e+00  1.42302e+01
       H  5.02436e+00  4.88957e+00  1.44741e+01
       C  3.78544e+00  3.63711e+00  2.08467e+00
       H  4.43472e+00  3.82716e+00  1.23130e+00
       H  3.90503e+00  2.57369e+00  2.31554e+00
       H  2.73978e+00  3.85018e+00  1.76916e+00
       C  4.26738e+00  4.44459e+00  3.28732e+00
       O  5.43865e+00  4.53097e+00  3.61560e+00
       N  3.23215e+00  5.04905e+00  3.95586e+00
       H  2.31115e+00  4.96494e+00  3.53704e+00
       C  3.30822e+00  5.88187e+00  5.09306e+00
       C  2.22234e+00  6.73857e+00  5.30621e+00
       H  1.39285e+00  6.74146e+00  4.60753e+00
       C  2.20311e+00  7.61261e+00  6.40704e+00
       H  1.36811e+00  8.28381e+00  6.53923e+00
       C  4.36783e+00  5.87275e+00  6.01147e+00
       H  5.19878e+00  5.19114e+00  5.88775e+00
       C  4.35029e+00  6.74120e+00  7.11148e+00
       H  5.16942e+00  6.71120e+00  7.81854e+00
       C  3.27654e+00  7.61209e+00  7.29511e+00
       O  3.33121e+00  8.48530e+00  8.37192e+00
       H  2.43326e+00  8.83161e+00  8.61601e+00
       C  5.72993e+00 -9.37925e-01  3.77941e+00
       H  5.04458e+00 -7.51214e-01  4.61163e+00
       H  6.75695e+00 -7.16653e-01  4.10017e+00
       H  5.65899e+00 -2.00055e+00  3.54201e+00
       C  5.29422e+00 -1.29892e-01  2.56947e+00
       O  4.12540e+00 -4.24993e-02  2.24199e+00
       N  6.33189e+00  4.75109e-01  1.90241e+00
       H  7.25232e+00  3.91214e-01  2.32107e+00
       C  6.25520e+00  1.30813e+00  7.65025e-01
       C  7.34107e+00  2.16479e+00  5.51880e-01
       H  8.17054e+00  2.16764e+00  1.25054e+00
       C  7.36037e+00  3.03889e+00 -5.48960e-01
       H  8.19551e+00  3.71040e+00 -6.81231e-01
       C  5.19560e+00  1.29902e+00 -1.53333e-01
       H  4.36465e+00  6.17381e-01 -2.96159e-02
       C  5.21312e+00  2.16747e+00 -1.25334e+00
       H  4.39398e+00  2.13746e+00 -1.96040e+00
       C  6.28683e+00  3.03838e+00 -1.43700e+00
       O  6.23173e+00  3.91193e+00 -2.51363e+00
       H  7.13003e+00  4.25784e+00 -2.75789e+00
80
# CELL(abcABC):   13.18034    17.29206    24.21758    90.00000    66.14000    90.00000  cell{atomic_unit}  Traj: positions{angstrom} Step:           3  Bead:       0 
       C  8.24413e+00  5.52585e+00  9.61637e+00
       H  8.16070e+00  6.57963e+00  9.39727e+00
       H  7.62232e+00  5.31871e+00  1.04709e+01
       H  9.23862e+00  5.27791e+00  9.98020e+00
       C  7.88074e+00  4.70404e+00  8.42041e+00
       O  6.70999e+00  4.61483e+00  8.10024e+00
       N  8.92415e+00  4.09821e+00  7.76293e+00
       H  9.84522e+00  4.18017e+00  8.18290e+00
       C  8.84771e+00  3.26576e+00  6.62471e+00
       C  7.78598e+00  3.27272e+00  5.70580e+00
       H  6.95589e+00  3.95652e+00  5.82855e+00
       C  7.80355e+00  2.40687e+00  4.60509e+00
       H  6.98501e+00  2.43465e+00  3.89703e+00
       C  9.93316e+00  2.40953e+00  6.40795e+00
       H  1.07615e+01  2.40593e+00  7.10829e+00
       C  9.95188e+00  1.53566e+00  5.30922e+00
       H  1.07863e+01  8.62629e-01  5.17614e+00
       C  8.87710e+00  1.53498e+00  4.41937e+00
       O  8.82056e+00  6.63045e-01  3.34380e+00
       H  9.72233e+00  3.20618e-01  3.10480e+00
       C  6.45734e+00  1.00839e+01  7.92781e+00
       H  5.41005e+00  9.86999e+00  7.61481e+00
       H  7.17803e+00  9.89730e+00  7.12326e+00
       H  6.58166e+00  1.11419e+01  8.17427e+00
       C  6.85783e+00  9.28159e+00  9.14816e+00
       O  8.03221e+00  9.19063e+00  9.47154e+00
       N  5.82145e+00  8.67164e+00  9.81196e+00
       H  4.90049e+00  8.75374e+00  9.39159e+00
       C  5.89805e+00  7.83967e+00  1.09498e+01
       C  4.81237e+00  6.98328e+00  1.11664e+01
       H  3.98392e+00  6.97956e+00  1.04660e+01
       C  4.79358e+00  6.10934e+00  1.22652e+01
       H  3.95903e+00  5.43597e+00  1.23984e+01
       C  6.95960e+00  7.84650e+00  1.18685e+01
       H  7.78971e+00  8.53029e+00  1.17457e+01
       C  6.94205e+00  6.98062e+00  1.29692e+01
       H  7.76059e+00  7.00839e+00  1.36773e+01
       C  5.86839e+00  6.10884e+00  1.31550e+01
       O  5.92467e+00  5.23740e+00  1.42308e+01
       H  5.02316e+00  4.89433e+00  1.44696e+01
       C  3.78254e+00  3.63603e+00  2.08734e+00
       H  4.43683e+00  3.83096e+00  1.22962e+00
       H  3.90206e+00  2.57522e+00  2.31693e+00
       H  2.75021e+00  3.84911e+00  1.77530e+00
       C  4.25969e+00  4.44157e+00  3.28909e+00
       O  5.43998e+00  4.52820e+00  3.60954e+00
       N  3.23151e+00  5.05103e+00  3.95551e+00
       H  2.30992e+00  4.96747e+00  3.53384e+00
       C  3.30746e+00  5.88187e+00  5.09173e+00
       C  2.22137e+00  6.73791e+00  5.30819e+00
       H  1.39299e+00  6.74156e+00  4.60793e+00
       C  2.20277e+00  7.61168e+00  6.40697e+00
       H  1.36848e+00  8.28434e+00  6.53985e+00
       C  4.36857e+00  5.87487e+00  6.01026e+00
       H  5.19862e+00  5.19097e+00  5.88762e+00
       C  4.35096e+00  6.74063e+00  7.11111e+00
       H  5.16949e+00  6.71285e+00  7.81917e+00
       C  3.27737e+00  7.61242e+00  7.29693e+00
       O  3.33392e+00  8.48442e+00  8.37245e+00
       H  2.43218e+00  8.82682e+00  8.61145e+00
       C  5.72819e+00 -9.38537e-01  3.77679e+00
       H  5.04604e+00 -7.48954e-01  4.61063e+00
       H  6.75477e+00 -7.15420e-01  4.09858e+00
       H  5.66012e+00 -2.00010e+00  3.54014e+00
       C  5.29864e+00 -1.33332e-01  2.56711e+00
       O  4.12220e+00 -4.41495e-02  2.24587e+00
       N  6.33249e+00  4.76316e-01  1.90347e+00
       H  7.25380e+00  3.93695e-01  2.32447e+00
       C  6.25613e+00  1.30811e+00  7.66478e-01
       C  7.34202e+00  2.16415e+00  5.49839e-01
       H  8.17034e+00  2.16768e+00  1.25011e+00
       C  7.36079e+00  3.03802e+00 -5.48943e-01
       H  8.19517e+00  3.71106e+00 -6.81902e-01
       C  5.19483e+00  1.30117e+00 -1.52111e-01
       H  4.36480e+00  6.17207e-01 -2.94975e-02
       C  5.21243e+00  2.16690e+00 -1.25296e+00
       H  4.39390e+00  2.13911e+00 -1.96103e+00
       C  6.28596e+00  3.03877e+00 -1.43884e+00
       O  6.22883e+00  3.91129e+00 -2.51406e+00
       H  7.13090e+00  4.25300e+00 -2.75333e+00
80
# CELL(abcABC):   13.18034    17.29206    24.21758    90.00000    66.14000    90.00000  cell{atomic_unit}  Traj: positions{angstrom} Step:           4  Bead:       0 
       C  8.24580e+00  5.52362e+00  9.61811e+00
       H  8.16612e+00  6.58845e+00  9.38997e+00
       H  7.60559e+00  5.31035e+00  1.04722e+01
       H  9.26637e+00  5.27738e+00  9.97908e+00
       C  7.87605e+00  4.70933e+00  8.41089e+00
       O  6.69841e+00  4.61315e+00  8.10072e+00
       N  8.92474e+00  4.09693e+00  7.76615e+00
       H  9.84821e+00  4.17543e+00  8.19068e+00
       C  8.84980e+00  3.26523e+00  6.62649e+00
       C  7.78498e+00  3.26976e+00  5.70925e+00
       H  6.95641e+00  3.95644e+00  5.82882e+00
       C  7.80259e+00  2.40674e+00  4.60510e+00
       H  6.98465e+00  2.43151e+00  3.89588e+00
       C  9.93537e+00  2.41147e+00  6.40532e+00
       H  1.07614e+01  2.40565e+00  7.10718e+00
       C  9.95197e+00  1.53635e+00  5.30714e+00
       H  1.07856e+01  8.61332e-01  5.17479e+00
       C  8.87518e+00  1.53572e+00  4.41780e+00
       O  8.81665e+00  6.64572e-01  3.34269e+00
       H  9.72358e+00  3.30574e-01  3.11404e+00
       C  6.46185e+00  1.00839e+01  7.93564e+00
       H  5.42828e+00  9.87389e+00  7.61633e+00
       H  7.16266e+00  9.89023e+00  7.12762e+00
       H  6.57080e+00  1.11388e+01  8.17663e+00
       C  6.85664e+00  9.28837e+00  9.15240e+00
       O  8.03650e+00  9.19268e+00  9.46563e+00
       N  5.81997e+00  8.67070e+00  9.80809e+00
       H  4.89734e+00  8.74845e+00  9.38431e+00
       C  5.89623e+00  7.83919e+00  1.09485e+01
       C  4.81024e+00  6.98523e+00  1.11691e+01
       H  3.98394e+00  6.97915e+00  1.04671e+01
       C  4.79329e+00  6.10995e+00  1.22673e+01
       H  3.95961e+00  5.43438e+00  1.23999e+01
       C  6.96079e+00  7.84369e+00  1.18651e+01
       H  7.78920e+00  8.53025e+00  1.17454e+01
       C  6.94298e+00  6.98053e+00  1.29692e+01
       H  7.76094e+00  7.00526e+00  1.36784e+01
       C  5.87017e+00  6.10972e+00  1.31566e+01
       O  5.92831e+00  5.23941e+00  1.42324e+01
       H  5.02173e+00  4.90425e+00  1.44603e+01
       C  3.78725e+00  3.63488e+00  2.09089e+00
       H  4.43822e+00  3.83796e+00  1.22999e+00
       H  3.89572e+00  2.57666e+00  2.32013e+00
       H  2.76365e+00  3.84828e+00  1.78586e+00
       C  4.25081e+00  4.43481e+00  3.29272e+00
       O  5.43778e+00  4.52252e+00  3.59656e+00
       N  3.22829e+00  5.05459e+00  3.95411e+00
       H  2.30768e+00  4.97315e+00  3.52761e+00
       C  3.30624e+00  5.88351e+00  5.09114e+00
       C  2.21952e+00  6.73585e+00  5.31089e+00
       H  1.39311e+00  6.74181e+00  4.60902e+00
       C  2.20278e+00  7.61080e+00  6.40897e+00
       H  1.36929e+00  8.28532e+00  6.54103e+00
       C  4.37012e+00  5.87784e+00  6.00681e+00
       H  5.19808e+00  5.19102e+00  5.88714e+00
       C  4.35192e+00  6.74076e+00  7.11107e+00
       H  5.16982e+00  6.71600e+00  7.82031e+00
       C  3.27927e+00  7.61158e+00  7.29865e+00
       O  3.33788e+00  8.48295e+00  8.37352e+00
       H  2.43096e+00  8.81683e+00  8.60224e+00
       C  5.72664e+00 -9.39167e-01  3.77222e+00
       H  5.04863e+00 -7.44271e-01  4.60823e+00
       H  6.75010e+00 -7.12968e-01  4.09501e+00
       H  5.66224e+00 -2.00010e+00  3.53612e+00
       C  5.30241e+00 -1.40269e-01  2.56207e+00
       O  4.11946e+00 -4.74715e-02  2.25397e+00
       N  6.33449e+00  4.78390e-01  1.90601e+00
       H  7.25643e+00  3.99092e-01  2.33133e+00
       C  6.25755e+00  1.30928e+00  7.67669e-01
       C  7.34393e+00  2.16215e+00  5.47094e-01
       H  8.17009e+00  2.16784e+00  1.24896e+00
       C  7.36085e+00  3.03724e+00 -5.51081e-01
       H  8.19436e+00  3.71219e+00 -6.83142e-01
       C  5.19338e+00  1.30424e+00 -1.48567e-01
       H  4.36532e+00  6.17267e-01 -2.90894e-02
       C  5.21143e+00  2.16705e+00 -1.25293e+00
       H  4.39353e+00  2.14227e+00 -1.96217e+00
       C  6.28400e+00  3.03804e+00 -1.44058e+00
       O  6.22435e+00  3.91017e+00 -2.51483e+00
       H  7.13172e+00  4.24296e+00 -2.74417e+00
80
# CELL(abcABC):   13.18034    17.29206    24.21758    90.00000    66.14000    90.00000  cell{atomic_unit}  Traj: positions{angstrom} Step:           5  Bead:       0 
       C  8.26104e+00  5.52404e+00  9.62559e+00
       H  8.17727e+00  6.58882e+00  9.38167e+00
       H  7.58508e+00  5.29841e+00  1.04632e+01
       H  9.29150e+00  5.28118e+00  9.96890e+00
       C  7.87034e+00  4.72237e+00  8.40468e+00
       O  6.68707e+00  4.61073e+00  8.10102e+00
       N  8.92292e+00  4.09344e+00  7.76923e+00
       H  9.84775e+00  4.16612e+00  8.20476e+00
       C  8.85196e+00  3.26487e+00  6.62968e+00
       C  7.78423e+00  3.26427e+00  5.71274e+00
       H  6.95745e+00  3.95548e+00  5.83046e+00
       C  7.79965e+00  2.40742e+00  4.60774e+00
       H  6.98352e+00  2.42611e+00  3.89414e+00
       C  9.93880e+00  2.41269e+00  6.39928e+00
       H  1.07631e+01  2.40518e+00  7.10530e+00
       C  9.95163e+00  1.53878e+00  5.30340e+00
       H  1.07837e+01  8.59055e-01  5.17159e+00
       C  8.87156e+00  1.53643e+00  4.41518e+00
       O  8.81133e+00  6.70362e-01  3.34441e+00
       H  9.72636e+00  3.48113e-01  3.12981e+00
       C  6.46663e+00  1.00868e+01  7.95047e+00
       H  5.44792e+00  9.87655e+00  7.61856e+00
       H  7.14391e+00  9.87528e+00  7.13034e+00
       H  6.55345e+00  1.11407e+01  8.18322e+00
       C  6.85956e+00  9.29685e+00  9.16296e+00
       O  8.04036e+00  9.19618e+00  9.45675e+00
       N  5.81687e+00  8.66687e+00  9.80441e+00
       H  4.89485e+00  8.73800e+00  9.37054e+00
       C  5.89431e+00  7.84030e+00  1.09436e+01
       C  4.80680e+00  6.98632e+00  1.11754e+01
       H  3.98247e+00  6.97857e+00  1.04692e+01
       C  4.79348e+00  6.11227e+00  1.22712e+01
       H  3.96140e+00  5.43170e+00  1.24033e+01
       C  6.96193e+00  7.83840e+00  1.18616e+01
       H  7.78845e+00  8.52969e+00  1.17432e+01
       C  6.94599e+00  6.98141e+00  1.29666e+01
       H  7.76198e+00  6.99988e+00  1.36802e+01
       C  5.87343e+00  6.11055e+00  1.31595e+01
       O  5.93286e+00  5.24601e+00  1.42316e+01
       H  5.01842e+00  4.92167e+00  1.44444e+01
       C  3.79778e+00  3.63383e+00  2.09550e+00
       H  4.44105e+00  3.85053e+00  1.23398e+00
       H  3.88589e+00  2.57419e+00  2.32692e+00
       H  2.77743e+00  3.84919e+00  1.80242e+00
       C  4.24495e+00  4.42221e+00  3.29722e+00
       O  5.43205e+00  4.51391e+00  3.57705e+00
       N  3.22194e+00  5.06002e+00  3.95159e+00
       H  2.30263e+00  4.98571e+00  3.51619e+00
       C  3.30443e+00  5.88543e+00  5.08846e+00
       C  2.21612e+00  6.73575e+00  5.31799e+00
       H  1.39203e+00  6.74209e+00  4.61115e+00
       C  2.20343e+00  7.60811e+00  6.41290e+00
       H  1.37126e+00  8.28716e+00  6.54390e+00
       C  4.37247e+00  5.88384e+00  6.00376e+00
       H  5.19756e+00  5.19128e+00  5.88443e+00
       C  4.35540e+00  6.74003e+00  7.10868e+00
       H  5.17081e+00  6.72145e+00  7.82206e+00
       C  3.28278e+00  7.61080e+00  7.30151e+00
       O  3.34358e+00  8.47744e+00  8.37161e+00
       H  2.42838e+00  8.79917e+00  8.58662e+00
       C  5.72608e+00 -9.41210e-01  3.76559e+00
       H  5.05262e+00 -7.35446e-01  4.60199e+00
       H  6.74393e+00 -7.07801e-01  4.08786e+00
       H  5.66589e+00 -2.00185e+00  3.52863e+00
       C  5.30323e+00 -1.52097e-01  2.55495e+00
       O  4.11919e+00 -5.30210e-02  2.26652e+00
       N  6.33820e+00  4.82784e-01  1.90880e+00
       H  7.25929e+00  4.10340e-01  2.34394e+00
       C  6.25906e+00  1.31004e+00  7.71367e-01
       C  7.34711e+00  2.16146e+00  5.40386e-01
       H  8.17119e+00  2.16799e+00  1.24682e+00
       C  7.36018e+00  3.03460e+00 -5.55132e-01
       H  8.19211e+00  3.71389e+00 -6.85989e-01
       C  5.19150e+00  1.31014e+00 -1.45142e-01
       H  4.36597e+00  6.17790e-01 -2.67427e-02
       C  5.20813e+00  2.16641e+00 -1.25040e+00
       H  4.39240e+00  2.14773e+00 -1.96391e+00
       C  6.28020e+00  3.03716e+00 -1.44321e+00
       O  6.21757e+00  3.90502e+00 -2.51213e+00
       H  7.13314e+00  4.22508e+00 -2.72891e+00
80
# CELL(abcABC):   13.18034    17.29206    24.21758    90.00000    66.14000    90.00000  cell{atomic_unit}  Traj: positions{angstrom} Step:           6  Bead:       0 
       C  8.27960e+00  5.51785e+00  9.63052e+00
       H  8.19229e+00  6.58705e+00  9.37486e+00
       H  7.56912e+00  5.28733e+00  1.04462e+01
       H  9.30944e+00  5.28852e+00  9.95362e+00
       C  7.86108e+00  4.73421e+00  8.39663e+00
       O  6.68865e+00  4.61140e+00  8.10595e+00
       N  8.92112e+00  4.09432e+00  7.78047e+00
       H  9.84015e+00  4.15299e+00  8.22039e+00
       C  8.85189e+00  3.25966e+00  6.62650e+00
       C  7.78308e+00  3.26337e+00  5.72132e+00
       H  6.95952e+00  3.95243e+00  5.83317e+00
       C  7.79621e+00  2.40309e+00  4.60656e+00
       H  6.98176e+00  2.42048e+00  3.89375e+00
       C  9.94309e+00  2.41689e+00  6.39778e+00
       H  1.07653e+01  2.40420e+00  7.10079e+00
       C  9.95123e+00  1.53876e+00  5.29469e+00
       H  1.07801e+01  8.57164e-01  5.16702e+00
       C  8.86611e+00  1.54336e+00  4.41949e+00
       O  8.80870e+00  6.76210e-01  3.34512e+00
       H  9.72826e+00  3.70008e-01  3.14879e+00
       C  6.46418e+00  1.00904e+01  7.96500e+00
       H  5.46466e+00  9.87669e+00  7.62353e+00
       H  7.12782e+00  9.85656e+00  7.13234e+00
       H  6.53490e+00  1.11494e+01  8.19322e+00
       C  6.85742e+00  9.30529e+00  9.17460e+00
       O  8.04928e+00  9.19856e+00  9.45093e+00
       N  5.81612e+00  8.66612e+00  9.79583e+00
       H  4.89533e+00  8.72363e+00  9.35386e+00
       C  5.89130e+00  7.83302e+00  1.09481e+01
       C  4.80381e+00  6.99162e+00  1.11765e+01
       H  3.98045e+00  6.97732e+00  1.04740e+01
       C  4.79369e+00  6.11199e+00  1.22802e+01
       H  3.96503e+00  5.42953e+00  1.24082e+01
       C  6.96318e+00  7.83886e+00  1.18511e+01
       H  7.78683e+00  8.52714e+00  1.17399e+01
       C  6.94901e+00  6.97701e+00  1.29677e+01
       H  7.76371e+00  6.99431e+00  1.36807e+01
       C  5.87886e+00  6.11809e+00  1.31554e+01
       O  5.93451e+00  5.25294e+00  1.42321e+01
       H  5.01539e+00  4.94324e+00  1.44251e+01
       C  3.81092e+00  3.62835e+00  2.09908e+00
       H  4.44468e+00  3.86549e+00  1.24202e+00
       H  3.87546e+00  2.56994e+00  2.33486e+00
       H  2.78538e+00  3.85267e+00  1.82049e+00
       C  4.23639e+00  4.41090e+00  3.30436e+00
       O  5.43038e+00  4.50511e+00  3.55814e+00
       N  3.21626e+00  5.06139e+00  3.94267e+00
       H  2.29766e+00  5.00367e+00  3.50293e+00
       C  3.30260e+00  5.89313e+00  5.09233e+00
       C  2.21275e+00  6.73199e+00  5.31995e+00
       H  1.39050e+00  6.74317e+00  4.61641e+00
       C  2.20360e+00  7.60911e+00  6.42299e+00
       H  1.37492e+00  8.28856e+00  6.54814e+00
       C  4.37490e+00  5.88443e+00  5.99345e+00
       H  5.19634e+00  5.19339e+00  5.88006e+00
       C  4.35902e+00  6.74495e+00  7.11031e+00
       H  5.17289e+00  6.72718e+00  7.82296e+00
       C  3.28907e+00  7.60338e+00  7.29762e+00
       O  3.34672e+00  8.47214e+00  8.37053e+00
       H  2.42706e+00  8.77710e+00  8.56792e+00
       C  5.72739e+00 -9.44511e-01  3.75797e+00
       H  5.05650e+00 -7.24706e-01  4.59301e+00
       H  6.73911e+00 -7.00879e-01  4.07838e+00
       H  5.67032e+00 -2.00576e+00  3.51974e+00
       C  5.30896e+00 -1.63128e-01  2.54656e+00
       O  4.11645e+00 -5.90933e-02  2.27854e+00
       N  6.34017e+00  4.83267e-01  1.91766e+00
       H  7.25993e+00  4.26204e-01  2.35874e+00
       C  6.26068e+00  1.31746e+00  7.67525e-01
       C  7.35013e+00  2.15699e+00  5.38742e-01
       H  8.17278e+00  2.16881e+00  1.24172e+00
       C  7.35946e+00  3.03467e+00 -5.64500e-01
       H  8.18808e+00  3.71495e+00 -6.90125e-01
       C  5.18928e+00  1.31064e+00 -1.35007e-01
       H  4.36737e+00  6.20287e-01 -2.29737e-02
       C  5.20425e+00  2.17088e+00 -1.25160e+00
       H  4.39038e+00  2.15350e+00 -1.96457e+00
       C  6.27395e+00  3.02987e+00 -1.43897e+00
       O  6.21270e+00  3.90001e+00 -2.50993e+00
       H  7.13274e+00  4.20251e+00 -2.71105e+00
80
# CELL(abcABC):   13.18034    17.29206    24.21758    90.00000    66.14000    90.00000  cell{atomic_unit}  Traj: positions{angstrom} Step:           7  Bead:       0 
       C  8.27779e+00  5.51892e+00  9.62810e+00
       H  8.19165e+00  6.58319e+00  9.37750e+00
       H  7.57520e+00  5.28977e+00  1.04445e+01
       H  9.30084e+00  5.28883e+00  9.95325e+00
       C  7.86965e+00  4.73353e+00  8.40216e+00
       O  6.68797e+00  4.61184e+00  8.10497e+00
       N  8.91873e+00  4.09277e+00  7.77650e+00
       H  9.83915e+00  4.15391e+00  8.21958e+00
       C  8.85183e+00  3.26197e+00  6.62950e+00
       C  7.78314e+00  3.26264e+00  5.71801e+00
       H  6.95900e+00  3.95267e+00  5.83372e+00
       C  7.79576e+00  2.40474e+00  4.60864e+00
       H  6.98145e+00  2.42118e+00  3.89398e+00
       C  9.94215e+00  2.41511e+00  6.39686e+00
       H  1.07659e+01  2.40437e+00  7.10113e+00
       C  9.95116e+00  1.53996e+00  5.29672e+00
       H  1.07802e+01  8.57287e-01  5.16680e+00
       C  8.86690e+00  1.54174e+00  4.41861e+00
       O  8.80953e+00  6.77094e-01  3.34659e+00
       H  9.72860e+00  3.67688e-01  3.14651e+00
       C  6.46305e+00  1.00913e+01  7.96253e+00
       H  5.45752e+00  9.87481e+00  7.62340e+00
       H  7.13230e+00  9.85815e+00  7.13168e+00
       H  6.53768e+00  1.11509e+01  8.19298e+00
       C  6.86233e+00  9.30376e+00  9.17353e+00
       O  8.04450e+00  9.19808e+00  9.45244e+00
       N  5.81584e+00  8.66404e+00  9.79959e+00
       H  4.89685e+00  8.72450e+00  9.35507e+00
       C  5.89217e+00  7.83581e+00  1.09450e+01
       C  4.80387e+00  6.98900e+00  1.11778e+01
       H  3.97998e+00  6.97757e+00  1.04737e+01
       C  4.79400e+00  6.11350e+00  1.22780e+01
       H  3.96497e+00  5.42974e+00  1.24083e+01
       C  6.96272e+00  7.83757e+00  1.18548e+01
       H  7.78739e+00  8.52749e+00  1.17392e+01
       C  6.94966e+00  6.97902e+00  1.29654e+01