80
# CELL(abcABC):   13.17884    17.29009    24.21482    90.00000    66.14000    90.00000  cell{atomic_unit}  Traj: positions{atomic_unit} Step:           0  Bead:       0 
       C  1.57303e+01  1.04074e+01  1.82169e+01
       H  1.53980e+01  1.24288e+01  1.77673e+01
       H  1.44248e+01  1.00684e+01  1.97876e+01
       H  1.72898e+01  1.00007e+01  1.88207e+01
       C  1.49368e+01  8.88275e+00  1.59441e+01
       O  1.26659e+01  8.71622e+00  1.52864e+01
       N  1.68419e+01  7.75181e+00  1.46623e+01
       H  1.86033e+01  7.90960e+00  1.54512e+01
       C  1.67150e+01  6.17137e+00  1.25122e+01
       C  1.47182e+01  6.19050e+00  1.07744e+01
       H  1.31433e+01  7.47652e+00  1.10145e+01
       C  1.47518e+01  4.55159e+00  8.71106e+00
       H  1.31976e+01  4.60725e+00  7.36397e+00
       C  1.87668e+01  4.54216e+00  1.21079e+01
       H  2.03387e+01  4.54759e+00  1.34362e+01
       C  1.88023e+01  2.91095e+00  1.00461e+01
       H  2.03875e+01  1.62963e+00  9.78267e+00
       C  1.67762e+01  2.88836e+00  8.34049e+00
       O  1.66752e+01  1.26054e+00  6.33403e+00
       H  1.83743e+01  5.82444e-01  5.84545e+00
       C  1.21347e+01  1.90505e+01  1.49937e+01
       H  1.01972e+01  1.86438e+01  1.43899e+01
       H  1.36291e+01  1.87116e+01  1.34230e+01
       H  1.24670e+01  2.10720e+01  1.54433e+01
       C  1.29282e+01  1.75259e+01  1.72665e+01
       O  1.51991e+01  1.73595e+01  1.79242e+01
       N  1.10232e+01  1.63950e+01  1.85484e+01
       H  9.26178e+00  1.65527e+01  1.77595e+01
       C  1.11500e+01  1.48145e+01  2.06984e+01
       C  9.09830e+00  1.31853e+01  2.11027e+01
       H  7.52637e+00  1.31907e+01  1.97745e+01
       C  9.06279e+00  1.15541e+01  2.31646e+01
       H  7.47758e+00  1.02728e+01  2.34280e+01
       C  1.31469e+01  1.48336e+01  2.24362e+01
       H  1.47218e+01  1.61197e+01  2.21961e+01
       C  1.31134e+01  1.31947e+01  2.44996e+01
       H  1.46676e+01  1.32504e+01  2.58466e+01
       C  1.10890e+01  1.15315e+01  2.48702e+01
       O  1.11900e+01  9.90362e+00  2.68766e+01
       H  9.49090e+00  9.22557e+00  2.73652e+01
       C  7.23839e+00  6.87885e+00  3.92354e+00
       H  8.35487e+00  7.21783e+00  2.35286e+00
       H  7.38171e+00  4.85740e+00  4.37312e+00
       H  5.11194e+00  7.28549e+00  3.31974e+00
       C  8.03188e+00  8.40344e+00  6.19637e+00
       O  1.03027e+01  8.56999e+00  6.85400e+00
       N  6.12681e+00  9.53437e+00  7.47818e+00
       H  4.36540e+00  9.37654e+00  6.68934e+00
       C  6.25363e+00  1.11148e+01  9.62822e+00
       C  4.20190e+00  1.27441e+01  1.00325e+01
       H  2.62999e+00  1.27387e+01  8.70420e+00
       C  4.16636e+00  1.43753e+01  1.20943e+01
       H  2.58119e+00  1.56566e+01  1.23578e+01
       C  8.25049e+00  1.10957e+01  1.13660e+01
       H  9.82542e+00  9.80974e+00  1.11259e+01
       C  8.21693e+00  1.27347e+01  1.34294e+01
       H  9.77113e+00  1.26790e+01  1.47764e+01
       C  6.19251e+00  1.43979e+01  1.38000e+01
       O  6.29351e+00  1.60257e+01  1.58065e+01
       H  4.59440e+00  1.67037e+01  1.62951e+01
       C  1.08340e+01 -1.76429e+00  7.14673e+00
       H  9.52854e+00 -1.42529e+00  8.71740e+00
       H  1.27715e+01 -1.35762e+00  7.75051e+00
       H  1.06907e+01 -3.78575e+00  6.69718e+00
       C  1.00405e+01 -2.39748e-01  4.87388e+00
       O  7.76961e+00 -7.32372e-02  4.21624e+00
       N  1.19455e+01  8.91209e-01  3.59205e+00
       H  1.37069e+01  7.33400e-01  4.38088e+00
       C  1.18187e+01  2.47169e+00  1.44202e+00
       C  1.38704e+01  4.10093e+00  1.03771e+00
       H  1.54423e+01  4.09552e+00  2.36601e+00
       C  1.39059e+01  5.73217e+00 -1.02410e+00
       H  1.54911e+01  7.01352e+00 -1.28752e+00
       C  9.82180e+00  2.45260e+00 -2.95737e-01
       H  8.24687e+00  1.16660e+00 -5.56148e-02
       C  9.85531e+00  4.09154e+00 -2.35910e+00
       H  8.30110e+00  4.03589e+00 -3.70615e+00
       C  1.18797e+01  5.75474e+00 -2.72971e+00
       O  1.17787e+01  7.38257e+00 -4.73615e+00
       H  1.34778e+01  8.06060e+00 -5.22480e+00
80
# CELL(abcABC):   13.17884    17.29009    24.21482    90.00000    66.14000    90.00000  cell{atomic_unit}  Traj: positions{atomic_unit} Step:           1  Bead:       0 
       C  1.56394e+01  1.04339e+01  1.81905e+01
       H  1.54093e+01  1.24218e+01  1.77677e+01
       H  1.44253e+01  1.00635e+01  1.97843e+01
       H  1.73705e+01  9.98537e+00  1.88446e+01
       C  1.48850e+01  8.88298e+00  1.59266e+01
       O  1.27048e+01  8.72165e+00  1.53046e+01
       N  1.68636e+01  7.74638e+00  1.46643e+01
       H  1.85993e+01  7.90637e+00  1.54524e+01
       C  1.67143e+01  6.17116e+00  1.25132e+01
       C  1.47165e+01  6.19045e+00  1.07789e+01
       H  1.31441e+01  7.47628e+00  1.10142e+01
       C  1.47492e+01  4.54740e+00  8.70314e+00
       H  1.31994e+01  4.60574e+00  7.36560e+00
       C  1.87685e+01  4.54973e+00  1.21139e+01
       H  2.03370e+01  4.54698e+00  1.34342e+01
       C  1.88042e+01  2.90194e+00  1.00351e+01
       H  2.03848e+01  1.63156e+00  9.78328e+00
       C  1.67773e+01  2.89917e+00  8.35326e+00
       O  1.66755e+01  1.25278e+00  6.32342e+00
       H  1.83706e+01  5.90638e-01  5.85273e+00
       C  1.21707e+01  1.90558e+01  1.49790e+01
       H  1.01987e+01  1.86454e+01  1.43885e+01
       H  1.36014e+01  1.87107e+01  1.34428e+01
       H  1.24567e+01  2.10645e+01  1.54444e+01
       C  1.29792e+01  1.75273e+01  1.72851e+01
       O  1.51602e+01  1.73649e+01  1.79062e+01
       N  1.10016e+01  1.63898e+01  1.85460e+01
       H  9.26572e+00  1.65495e+01  1.77583e+01
       C  1.11508e+01  1.48143e+01  2.06975e+01
       C  9.09659e+00  1.31929e+01  2.10967e+01
       H  7.52797e+00  1.31901e+01  1.97765e+01
       C  9.06086e+00  1.15451e+01  2.31756e+01
       H  7.48016e+00  1.02744e+01  2.34275e+01
       C  1.31486e+01  1.48336e+01  2.24317e+01
       H  1.47210e+01  1.61194e+01  2.21964e+01
       C  1.31159e+01  1.31905e+01  2.45075e+01
       H  1.46657e+01  1.32489e+01  2.58450e+01
       C  1.10878e+01  1.15423e+01  2.48574e+01
       O  1.11893e+01  9.89620e+00  2.68874e+01
       H  9.49458e+00  9.23377e+00  2.73579e+01
       C  7.17463e+00  6.87453e+00  3.93233e+00
       H  8.37269e+00  7.22664e+00  2.33476e+00
       H  7.38174e+00  4.86104e+00  4.37447e+00
       H  5.15484e+00  7.27876e+00  3.33362e+00
       C  8.08641e+00  8.40277e+00  6.21325e+00
       O  1.02638e+01  8.56438e+00  6.83597e+00
       N  6.10524e+00  9.53941e+00  7.47565e+00
       H  4.36936e+00  9.37977e+00  6.68809e+00
       C  6.25448e+00  1.11151e+01  9.62726e+00
       C  4.20021e+00  1.27365e+01  1.00265e+01
       H  2.63165e+00  1.27393e+01  8.70625e+00
       C  4.16448e+00  1.43843e+01  1.21053e+01
       H  2.58417e+00  1.56543e+01  1.23570e+01
       C  8.25221e+00  1.10958e+01  1.13615e+01
       H  9.82465e+00  9.80998e+00  1.11262e+01
       C  8.21947e+00  1.27389e+01  1.34373e+01
       H  9.76928e+00  1.26805e+01  1.47748e+01
       C  6.19140e+00  1.43870e+01  1.37872e+01
       O  6.29317e+00  1.60334e+01  1.58171e+01
       H  4.59805e+00  1.66955e+01  1.62878e+01
       C  1.08335e+01 -1.77061e+00  7.14623e+00
       H  9.53068e+00 -1.42210e+00  8.71583e+00
       H  1.27701e+01 -1.35605e+00  7.74962e+00
       H  1.06924e+01 -3.78212e+00  6.69527e+00
       C  9.98769e+00 -2.41156e-01  4.85590e+00
       O  7.80853e+00 -7.88651e-02  4.23423e+00
       N  1.19671e+01  8.96354e-01  3.59434e+00
       H  1.37030e+01  7.36640e-01  4.38214e+00
       C  1.18178e+01  2.47197e+00  1.44297e+00
       C  1.38721e+01  4.09335e+00  1.04371e+00
       H  1.54406e+01  4.09607e+00  2.36393e+00
       C  1.39078e+01  5.74116e+00 -1.03510e+00
       H  1.54883e+01  7.01160e+00 -1.28691e+00
       C  9.82008e+00  2.45271e+00 -2.91192e-01
       H  8.24763e+00  1.16683e+00 -5.59543e-02
       C  9.85276e+00  4.09574e+00 -2.36699e+00
       H  8.30294e+00  4.03740e+00 -3.70452e+00
       C  1.18808e+01  5.74396e+00 -2.71695e+00
       O  1.17785e+01  7.39065e+00 -4.74662e+00
       H  1.34741e+01  8.05240e+00 -5.21754e+00
80
# CELL(abcABC):   13.17884    17.29009    24.21482    90.00000    66.14000    90.00000  cell{atomic_unit}  Traj: positions{atomic_unit} Step:           2  Bead:       0 
       C  1.55965e+01  1.04421e+01  1.81771e+01
       H  1.54155e+01  1.24239e+01  1.77651e+01
       H  1.44195e+01  1.00589e+01  1.97846e+01
       H  1.74171e+01  9.97777e+00  1.88553e+01
       C  1.48934e+01  8.88542e+00  1.59226e+01
       O  1.26932e+01  8.72180e+00  1.53060e+01
       N  1.68635e+01  7.74539e+00  1.46661e+01
       H  1.86012e+01  7.90375e+00  1.54564e+01
       C  1.67171e+01  6.17112e+00  1.25158e+01
       C  1.47147e+01  6.18844e+00  1.07803e+01
       H  1.31444e+01  7.47642e+00  1.10142e+01
       C  1.47478e+01  4.54723e+00  8.70167e+00
       H  1.31999e+01  4.60391e+00  7.36551e+00
       C  1.87691e+01  4.55219e+00  1.21131e+01
       H  2.03366e+01  4.54675e+00  1.34335e+01
       C  1.88055e+01  2.90040e+00  1.00329e+01
       H  2.03837e+01  1.63149e+00  9.78283e+00
       C  1.67769e+01  2.90142e+00  8.35475e+00
       O  1.66735e+01  1.25128e+00  6.31991e+00
       H  1.83704e+01  5.96860e-01  5.85860e+00
       C  1.21916e+01  1.90563e+01  1.49770e+01
       H  1.02057e+01  1.86474e+01  1.43886e+01
       H  1.35835e+01  1.87087e+01  1.34531e+01
       H  1.24486e+01  2.10599e+01  1.54453e+01
       C  1.29647e+01  1.75322e+01  1.72850e+01
       O  1.51718e+01  1.73659e+01  1.79040e+01
       N  1.10023e+01  1.63885e+01  1.85450e+01
       H  9.26381e+00  1.65468e+01  1.77542e+01
       C  1.11479e+01  1.48144e+01  2.06949e+01
       C  9.09596e+00  1.31953e+01  2.10975e+01
       H  7.52836e+00  1.31898e+01  1.97772e+01
       C  9.05952e+00  1.15435e+01  2.31778e+01
       H  7.48108e+00  1.02741e+01  2.34280e+01
       C  1.31504e+01  1.48316e+01  2.24304e+01
       H  1.47207e+01  1.61196e+01  2.21965e+01
       C  1.31173e+01  1.31903e+01  2.45089e+01
       H  1.46652e+01  1.32470e+01  2.58451e+01
       C  1.10882e+01  1.15446e+01  2.48559e+01
       O  1.11910e+01  9.89503e+00  2.68911e+01
       H  9.49467e+00  9.23997e+00  2.73521e+01
       C  7.15345e+00  6.87315e+00  3.93945e+00
       H  8.38040e+00  7.23227e+00  2.32682e+00
       H  7.37944e+00  4.86357e+00  4.37574e+00
       H  5.17744e+00  7.27579e+00  3.34322e+00
       C  8.06415e+00  8.39907e+00  6.21214e+00
       O  1.02775e+01  8.56225e+00  6.83250e+00
       N  6.10791e+00  9.54132e+00  7.47551e+00
       H  4.36743e+00  9.38238e+00  6.68403e+00
       C  6.25164e+00  1.11151e+01  9.62449e+00
       C  4.19963e+00  1.27341e+01  1.00273e+01
       H  2.63211e+00  1.27395e+01  8.70697e+00
       C  4.16328e+00  1.43857e+01  1.21076e+01
       H  2.58534e+00  1.56541e+01  1.23573e+01
       C  8.25401e+00  1.10979e+01  1.13601e+01
       H  9.82428e+00  9.80984e+00  1.11262e+01
       C  8.22085e+00  1.27390e+01  1.34387e+01
       H  9.76878e+00  1.26823e+01  1.47749e+01
       C  6.19176e+00  1.43848e+01  1.37858e+01
       O  6.29514e+00  1.60349e+01  1.58206e+01
       H  4.59821e+00  1.66893e+01  1.62819e+01
       C  1.08280e+01 -1.77241e+00  7.14205e+00
       H  9.53289e+00 -1.41959e+00  8.71471e+00
       H  1.27688e+01 -1.35428e+00  7.74819e+00
       H  1.06939e+01 -3.78049e+00  6.69343e+00
       C  1.00047e+01 -2.45452e-01  4.85559e+00
       O  7.79593e+00 -8.03271e-02  4.23675e+00
       N  1.19655e+01  8.97846e-01  3.59505e+00
       H  1.37049e+01  7.39280e-01  4.38619e+00
       C  1.18206e+01  2.47202e+00  1.44570e+00
       C  1.38726e+01  4.09087e+00  1.04291e+00
       H  1.54401e+01  4.09623e+00  2.36318e+00
       C  1.39091e+01  5.74268e+00 -1.03738e+00
       H  1.54873e+01  7.01163e+00 -1.28733e+00
       C  9.81826e+00  2.45481e+00 -2.89759e-01
       H  8.24799e+00  1.16668e+00 -5.59671e-02
       C  9.85137e+00  4.09594e+00 -2.36845e+00
       H  8.30344e+00  4.03923e+00 -3.70461e+00
       C  1.18804e+01  5.74172e+00 -2.71552e+00
       O  1.17762e+01  7.39246e+00 -4.75000e+00
       H  1.34738e+01  8.04614e+00 -5.21167e+00
80
# CELL(abcABC):   13.17884    17.29009    24.21482    90.00000    66.14000    90.00000  cell{atomic_unit}  Traj: positions{atomic_unit} Step:           3  Bead:       0 
       C  1.55792e+01  1.04423e+01  1.81723e+01
       H  1.54215e+01  1.24337e+01  1.77583e+01
       H  1.44041e+01  1.00509e+01  1.97871e+01
       H  1.74585e+01  9.97381e+00  1.88598e+01
       C  1.48925e+01  8.88935e+00  1.59123e+01
       O  1.26801e+01  8.72082e+00  1.53072e+01
       N  1.68642e+01  7.74449e+00  1.46698e+01
       H  1.86048e+01  7.89938e+00  1.54634e+01
       C  1.67197e+01  6.17139e+00  1.25189e+01
       C  1.47134e+01  6.18453e+00  1.07824e+01
       H  1.31447e+01  7.47675e+00  1.10144e+01
       C  1.47466e+01  4.54832e+00  8.70237e+00
       H  1.31998e+01  4.60081e+00  7.36432e+00
       C  1.87709e+01  4.55336e+00  1.21093e+01
       H  2.03364e+01  4.54655e+00  1.34327e+01
       C  1.88063e+01  2.90198e+00  1.00330e+01
       H  2.03832e+01  1.63014e+00  9.78149e+00
       C  1.67753e+01  2.90070e+00  8.35141e+00
       O  1.66683e+01  1.25298e+00  6.31893e+00
       H  1.83725e+01  6.05925e-01  5.86720e+00
       C  1.22026e+01  1.90558e+01  1.49814e+01
       H  1.02235e+01  1.86516e+01  1.43899e+01
       H  1.35645e+01  1.87032e+01  1.34610e+01
       H  1.24375e+01  2.10551e+01  1.54471e+01
       C  1.29593e+01  1.75397e+01  1.72875e+01
       O  1.51786e+01  1.73678e+01  1.78986e+01
       N  1.10009e+01  1.63870e+01  1.85419e+01
       H  9.26057e+00  1.65422e+01  1.77475e+01
       C  1.11457e+01  1.48148e+01  2.06922e+01
       C  9.09408e+00  1.31965e+01  2.11013e+01
       H  7.52851e+00  1.31895e+01  1.97779e+01
       C  9.05856e+00  1.15450e+01  2.31778e+01
       H  7.48149e+00  1.02725e+01  2.34295e+01
       C  1.31518e+01  1.48277e+01  2.24282e+01
       H  1.47204e+01  1.61199e+01  2.21962e+01
       C  1.31186e+01  1.31914e+01  2.45083e+01
       H  1.46654e+01  1.32439e+01  2.58463e+01
       C  1.10896e+01  1.15440e+01  2.48593e+01
       O  1.11960e+01  9.89725e+00  2.68923e+01
       H  9.49239e+00  9.24897e+00  2.73435e+01
       C  7.14795e+00  6.87109e+00  3.94451e+00
       H  8.38439e+00  7.23947e+00  2.32365e+00
       H  7.37383e+00  4.86646e+00  4.37835e+00
       H  5.19714e+00  7.27376e+00  3.35483e+00
       C  8.04959e+00  8.39335e+00  6.21548e+00
       O  1.02800e+01  8.55699e+00  6.82105e+00
       N  6.10669e+00  9.54505e+00  7.47487e+00
       H  4.36511e+00  9.38716e+00  6.67798e+00
       C  6.25021e+00  1.11151e+01  9.62199e+00
       C  4.19779e+00  1.27328e+01  1.00310e+01
       H  2.63238e+00  1.27397e+01  8.70774e+00
       C  4.16264e+00  1.43840e+01  1.21074e+01
       H  2.58604e+00  1.56551e+01  1.23585e+01
       C  8.25541e+00  1.11019e+01  1.13578e+01
       H  9.82397e+00  9.80951e+00  1.11260e+01
       C  8.22212e+00  1.27380e+01  1.34380e+01
       H  9.76892e+00  1.26854e+01  1.47761e+01
       C  6.19333e+00  1.43854e+01  1.37892e+01
       O  6.30029e+00  1.60332e+01  1.58216e+01
       H  4.59621e+00  1.66802e+01  1.62733e+01
       C  1.08247e+01 -1.77356e+00  7.13709e+00
       H  9.53564e+00 -1.41532e+00  8.71282e+00
       H  1.27647e+01 -1.35194e+00  7.74519e+00
       H  1.06961e+01 -3.77962e+00  6.68989e+00
       C  1.00131e+01 -2.51947e-01  4.85113e+00
       O  7.78992e+00 -8.34549e-02  4.24408e+00
       N  1.19667e+01  9.00145e-01  3.59704e+00
       H  1.37077e+01  7.43962e-01  4.39261e+00
       C  1.18224e+01  2.47199e+00  1.44845e+00
       C  1.38744e+01  4.08966e+00  1.03906e+00
       H  1.54397e+01  4.09632e+00  2.36237e+00
       C  1.39099e+01  5.74106e+00 -1.03733e+00
       H  1.54866e+01  7.01288e+00 -1.28860e+00
       C  9.81678e+00  2.45888e+00 -2.87446e-01
       H  8.24829e+00  1.16636e+00 -5.57448e-02
       C  9.85007e+00  4.09488e+00 -2.36774e+00
       H  8.30328e+00  4.04235e+00 -3.70579e+00
       C  1.18787e+01  5.74244e+00 -2.71899e+00
       O  1.17707e+01  7.39128e+00 -4.75079e+00
       H  1.34754e+01  8.03697e+00 -5.20304e+00
80
# CELL(abcABC):   13.17884    17.29009    24.21482    90.00000    66.14000    90.00000  cell{atomic_unit}  Traj: positions{atomic_unit} Step:           4  Bead:       0 
       C  1.55823e+01  1.04381e+01  1.81756e+01
       H  1.54317e+01  1.24504e+01  1.77445e+01
       H  1.43725e+01  1.00351e+01  1.97896e+01
       H  1.75109e+01  9.97280e+00  1.88577e+01
       C  1.48837e+01  8.89936e+00  1.58943e+01
       O  1.26583e+01  8.71771e+00  1.53081e+01
       N  1.68653e+01  7.74209e+00  1.46758e+01
       H  1.86104e+01  7.89040e+00  1.54781e+01
       C  1.67237e+01  6.17040e+00  1.25222e+01
       C  1.47115e+01  6.17895e+00  1.07889e+01
       H  1.31457e+01  7.47660e+00  1.10149e+01
       C  1.47448e+01  4.54807e+00  8.70240e+00
       H  1.31991e+01  4.59487e+00  7.36215e+00
       C  1.87751e+01  4.55701e+00  1.21043e+01
       H  2.03361e+01  4.54601e+00  1.34306e+01
       C  1.88065e+01  2.90329e+00  1.00291e+01
       H  2.03819e+01  1.62770e+00  9.77895e+00
       C  1.67716e+01  2.90210e+00  8.34844e+00
       O  1.66609e+01  1.25586e+00  6.31687e+00
       H  1.83748e+01  6.24781e-01  5.88464e+00
       C  1.22111e+01  1.90557e+01  1.49962e+01
       H  1.02580e+01  1.86589e+01  1.43928e+01
       H  1.35355e+01  1.86898e+01  1.34693e+01
       H  1.24170e+01  2.10492e+01  1.54516e+01
       C  1.29570e+01  1.75525e+01  1.72955e+01
       O  1.51866e+01  1.73717e+01  1.78874e+01
       N  1.09981e+01  1.63852e+01  1.85346e+01
       H  9.25460e+00  1.65322e+01  1.77338e+01
       C  1.11423e+01  1.48139e+01  2.06896e+01
       C  9.09005e+00  1.32001e+01  2.11064e+01
       H  7.52857e+00  1.31887e+01  1.97800e+01
       C  9.05803e+00  1.15461e+01  2.31817e+01
       H  7.48256e+00  1.02695e+01  2.34323e+01
       C  1.31540e+01  1.48224e+01  2.24217e+01
       H  1.47194e+01  1.61198e+01  2.21955e+01
       C  1.31203e+01  1.31913e+01  2.45082e+01
       H  1.46660e+01  1.32380e+01  2.58485e+01
       C  1.10930e+01  1.15457e+01  2.48623e+01
       O  1.12029e+01  9.90102e+00  2.68951e+01
       H  9.48972e+00  9.26776e+00  2.73261e+01
       C  7.15684e+00  6.86892e+00  3.95121e+00
       H  8.38701e+00  7.25268e+00  2.32435e+00
       H  7.36184e+00  4.86918e+00  4.38440e+00
       H  5.22254e+00  7.27220e+00  3.37477e+00
       C  8.03276e+00  8.38057e+00  6.22236e+00
       O  1.02758e+01  8.54622e+00  6.79655e+00
       N  6.10060e+00  9.55179e+00  7.47225e+00
       H  4.36089e+00  9.39790e+00  6.66623e+00
       C  6.24791e+00  1.11182e+01  9.62089e+00
       C  4.19432e+00  1.27289e+01  1.00361e+01
       H  2.63262e+00  1.27402e+01  8.70979e+00
       C  4.16266e+00  1.43823e+01  1.21112e+01
       H  2.58756e+00  1.56570e+01  1.23607e+01
       C  8.25835e+00  1.11075e+01  1.13513e+01
       H  9.82296e+00  9.80960e+00  1.11251e+01
       C  8.22394e+00  1.27382e+01  1.34380e+01
       H  9.76954e+00  1.26914e+01  1.47782e+01
       C  6.19693e+00  1.43838e+01  1.37924e+01
       O  6.30784e+00  1.60305e+01  1.58236e+01
       H  4.59398e+00  1.66613e+01  1.62559e+01
       C  1.08218e+01 -1.77474e+00  7.12847e+00
       H  9.54054e+00 -1.40647e+00  8.70829e+00
       H  1.27559e+01 -1.34731e+00  7.73846e+00
       H  1.07001e+01 -3.77960e+00  6.68230e+00
       C  1.00202e+01 -2.65047e-01  4.84162e+00
       O  7.78482e+00 -8.97492e-02  4.25939e+00
       N  1.19705e+01  9.04098e-01  3.60185e+00
       H  1.37127e+01  7.54151e-01  4.40556e+00
       C  1.18250e+01  2.47423e+00  1.45071e+00
       C  1.38780e+01  4.08590e+00  1.03388e+00
       H  1.54392e+01  4.09661e+00  2.36020e+00
       C  1.39100e+01  5.73959e+00 -1.04135e+00
       H  1.54851e+01  7.01501e+00 -1.29093e+00
       C  9.81404e+00  2.46469e+00 -2.80741e-01
       H  8.24928e+00  1.16648e+00 -5.49766e-02
       C  9.84817e+00  4.09518e+00 -2.36766e+00
       H  8.30260e+00  4.04832e+00 -3.70794e+00
       C  1.18750e+01  5.74107e+00 -2.72225e+00
       O  1.17623e+01  7.38918e+00 -4.75217e+00
       H  1.34770e+01  8.01796e+00 -5.18571e+00
80
# CELL(abcABC):   13.17884    17.29009    24.21482    90.00000    66.14000    90.00000  cell{atomic_unit}  Traj: positions{atomic_unit} Step:           5  Bead:       0 
       C  1.56111e+01  1.04389e+01  1.81897e+01
       H  1.54528e+01  1.24511e+01  1.77288e+01
       H  1.43338e+01  1.00126e+01  1.97726e+01
       H  1.75584e+01  9.97998e+00  1.88385e+01
       C  1.48729e+01  8.92402e+00  1.58825e+01
       O  1.26369e+01  8.71322e+00  1.53086e+01
       N  1.68619e+01  7.73551e+00  1.46816e+01
       H  1.86095e+01  7.87280e+00  1.55047e+01
       C  1.67277e+01  6.16972e+00  1.25282e+01
       C  1.47100e+01  6.16858e+00  1.07955e+01
       H  1.31477e+01  7.47479e+00  1.10180e+01
       C  1.47392e+01  4.54933e+00  8.70738e+00
       H  1.31970e+01  4.58465e+00  7.35885e+00
       C  1.87816e+01  4.55932e+00  1.20929e+01
       H  2.03393e+01  4.54512e+00  1.34271e+01
       C  1.88058e+01  2.90786e+00  1.00220e+01
       H  2.03782e+01  1.62341e+00  9.77293e+00
       C  1.67648e+01  2.90347e+00  8.34352e+00
       O  1.66507e+01  1.26677e+00  6.32018e+00
       H  1.83799e+01  6.58019e-01  5.91441e+00
       C  1.22201e+01  1.90612e+01  1.50242e+01
       H  1.02950e+01  1.86640e+01  1.43970e+01
       H  1.35000e+01  1.86616e+01  1.34744e+01
       H  1.23842e+01  2.10529e+01  1.54641e+01
       C  1.29624e+01  1.75685e+01  1.73155e+01
       O  1.51938e+01  1.73783e+01  1.78707e+01
       N  1.09922e+01  1.63779e+01  1.85276e+01
       H  9.24985e+00  1.65125e+01  1.77078e+01
       C  1.11387e+01  1.48159e+01  2.06804e+01
       C  9.08357e+00  1.32022e+01  2.11183e+01
       H  7.52579e+00  1.31876e+01  1.97838e+01
       C  9.05840e+00  1.15504e+01  2.31891e+01
       H  7.48594e+00  1.02644e+01  2.34388e+01
       C  1.31562e+01  1.48124e+01  2.24151e+01
       H  1.47180e+01  1.61188e+01  2.21915e+01
       C  1.31260e+01  1.31929e+01  2.45032e+01
       H  1.46680e+01  1.32278e+01  2.58517e+01
       C  1.10992e+01  1.15472e+01  2.48677e+01
       O  1.12116e+01  9.91343e+00  2.68935e+01
       H  9.48346e+00  9.30075e+00  2.72959e+01
       C  7.17673e+00  6.86693e+00  3.95992e+00
       H  8.39235e+00  7.27642e+00  2.33189e+00
       H  7.34326e+00  4.86452e+00  4.39723e+00
       H  5.24857e+00  7.27390e+00  3.40606e+00
       C  8.02163e+00  8.35672e+00  6.23089e+00
       O  1.02649e+01  8.52985e+00  6.75971e+00
       N  6.08858e+00  9.56202e+00  7.46755e+00
       H  4.35137e+00  9.42165e+00  6.64468e+00
       C  6.24450e+00  1.11218e+01  9.61587e+00
       C  4.18790e+00  1.27287e+01  1.00496e+01
       H  2.63060e+00  1.27407e+01  8.71383e+00
       C  4.16389e+00  1.43772e+01  1.21186e+01
       H  2.59128e+00  1.56604e+01  1.23661e+01
       C  8.26282e+00  1.11189e+01  1.13455e+01
       H  9.82199e+00  9.81009e+00  1.11200e+01
       C  8.23055e+00  1.27368e+01  1.34334e+01
       H  9.77139e+00  1.27017e+01  1.47815e+01
       C  6.20359e+00  1.43823e+01  1.37978e+01
       O  6.31872e+00  1.60201e+01  1.58199e+01
       H  4.58921e+00  1.66278e+01  1.62264e+01
       C  1.08208e+01 -1.77859e+00  7.11594e+00
       H  9.54809e+00 -1.38979e+00  8.69648e+00
       H  1.27442e+01 -1.33754e+00  7.72496e+00
       H  1.07070e+01 -3.78289e+00  6.66814e+00
       C  1.00219e+01 -2.87394e-01  4.82817e+00
       O  7.78439e+00 -1.00262e-01  4.28311e+00
       N  1.19775e+01  9.12448e-01  3.60715e+00
       H  1.37182e+01  7.75405e-01  4.42939e+00
       C  1.18279e+01  2.47573e+00  1.45773e+00
       C  1.38840e+01  4.08463e+00  1.02125e+00
       H  1.54413e+01  4.09689e+00  2.35616e+00
       C  1.39087e+01  5.73463e+00 -1.04896e+00
       H  1.54809e+01  7.01822e+00 -1.29629e+00
       C  9.81047e+00  2.47587e+00 -2.74230e-01
       H  8.25051e+00  1.16748e+00 -5.05360e-02
       C  9.84193e+00  4.09400e+00 -2.36285e+00
       H  8.30049e+00  4.05867e+00 -3.71122e+00
       C  1.18679e+01  5.73943e+00 -2.72715e+00
       O  1.17494e+01  7.37952e+00 -4.74694e+00
       H  1.34796e+01  7.98409e+00 -5.15686e+00
80
# CELL(abcABC):   13.17884    17.29009    24.21482    90.00000    66.14000    90.00000  cell{atomic_unit}  Traj: positions{atomic_unit} Step:           6  Bead:       0 
       C  1.56463e+01  1.04272e+01  1.81990e+01
       H  1.54812e+01  1.24478e+01  1.77159e+01
       H  1.43036e+01  9.99164e+00  1.97403e+01
       H  1.75924e+01  9.99388e+00  1.88096e+01
       C  1.48555e+01  8.94650e+00  1.58672e+01
       O  1.26399e+01  8.71461e+00  1.53179e+01
       N  1.68585e+01  7.73722e+00  1.47029e+01
       H  1.85952e+01  7.84792e+00  1.55342e+01
       C  1.67276e+01  6.15987e+00  1.25222e+01
       C  1.47078e+01  6.16691e+00  1.08117e+01
       H  1.31516e+01  7.46904e+00  1.10231e+01
       C  1.47326e+01  4.54113e+00  8.70517e+00
       H  1.31936e+01  4.57398e+00  7.35813e+00
       C  1.87897e+01  4.56727e+00  1.20900e+01
       H  2.03434e+01  4.54325e+00  1.34185e+01
       C  1.88051e+01  2.90784e+00  1.00055e+01
       H  2.03714e+01  1.61984e+00  9.76431e+00
       C  1.67544e+01  2.91659e+00  8.35172e+00
       O  1.66456e+01  1.27781e+00  6.32161e+00
       H  1.83834e+01  6.99572e-01  5.95026e+00
       C  1.22154e+01  1.90680e+01  1.50517e+01
       H  1.03267e+01  1.86642e+01  1.44063e+01
       H  1.34695e+01  1.86261e+01  1.34782e+01
       H  1.23491e+01  2.10692e+01  1.54830e+01
       C  1.29583e+01  1.75844e+01  1.73375e+01
       O  1.52106e+01  1.73829e+01  1.78596e+01
       N  1.09907e+01  1.63764e+01  1.85113e+01
       H  9.25070e+00  1.64852e+01  1.76762e+01
       C  1.11330e+01  1.48021e+01  2.06888e+01
       C  9.07793e+00  1.32121e+01  2.11204e+01
       H  7.52195e+00  1.31852e+01  1.97930e+01
       C  9.05878e+00  1.15499e+01  2.32062e+01
       H  7.49279e+00  1.02603e+01  2.34480e+01
       C  1.31586e+01  1.48132e+01  2.23953e+01
       H  1.47149e+01  1.61139e+01  2.21851e+01
       C  1.31317e+01  1.31845e+01  2.45054e+01
       H  1.46712e+01  1.32172e+01  2.58526e+01
       C  1.11095e+01  1.15615e+01  2.48598e+01
       O  1.12147e+01  9.92647e+00  2.68943e+01
       H  9.47773e+00  9.34169e+00  2.72594e+01
       C  7.20154e+00  6.85652e+00  3.96670e+00
       H  8.39920e+00  7.30474e+00  2.34714e+00
       H  7.32351e+00  4.85646e+00  4.41227e+00
       H  5.26357e+00  7.28049e+00  3.44023e+00
       C  8.00537e+00  8.33525e+00  6.24445e+00
       O  1.02617e+01  8.51310e+00  6.72397e+00
       N  6.07782e+00  9.56458e+00  7.45071e+00
       H  4.34196e+00  9.45569e+00  6.61962e+00
       C  6.24105e+00  1.11364e+01  9.62322e+00
       C  4.18155e+00  1.27216e+01  1.00533e+01
       H  2.62773e+00  1.27428e+01  8.72379e+00
       C  4.16423e+00  1.43791e+01  1.21377e+01
       H  2.59822e+00  1.56630e+01  1.23741e+01
       C  8.26746e+00  1.11199e+01  1.13260e+01
       H  9.81971e+00  9.81405e+00  1.11117e+01
       C  8.23741e+00  1.27462e+01  1.34365e+01
       H  9.77535e+00  1.27126e+01  1.47833e+01
       C  6.21554e+00  1.43682e+01  1.37904e+01
       O  6.32478e+00  1.60101e+01  1.58178e+01
       H  4.58686e+00  1.65860e+01  1.61911e+01
       C  1.08233e+01 -1.78482e+00  7.10153e+00
       H  9.55546e+00 -1.36945e+00  8.67946e+00
       H  1.27351e+01 -1.32443e+00  7.70704e+00
       H  1.07154e+01 -3.79026e+00  6.65132e+00
       C  1.00328e+01 -3.08257e-01  4.81229e+00
       O  7.77930e+00 -1.11778e-01  4.30586e+00
       N  1.19813e+01  9.13395e-01  3.62397e+00
       H  1.37194e+01  8.05456e-01  4.45740e+00
       C  1.18309e+01  2.48985e+00  1.45048e+00
       C  1.38897e+01  4.07622e+00  1.01820e+00
       H  1.54443e+01  4.09845e+00  2.34655e+00
       C  1.39073e+01  5.73481e+00 -1.06662e+00
       H  1.54732e+01  7.02022e+00 -1.30409e+00
       C  9.80626e+00  2.47685e+00 -2.54984e-01
       H  8.25317e+00  1.17222e+00 -4.33903e-02
       C  9.83459e+00  4.10250e+00 -2.36506e+00
       H  8.29669e+00  4.06962e+00 -3.71245e+00
       C  1.18560e+01  5.72565e+00 -2.71902e+00
       O  1.17402e+01  7.37013e+00 -4.74264e+00
       H  1.34789e+01  7.94129e+00 -5.12300e+00
80
# CELL(abcABC):   13.17884    17.29009    24.21482    90.00000    66.14000    90.00000  cell{atomic_unit}  Traj: positions{atomic_unit} Step:           7  Bead:       0 
       C  1.56431e+01  1.04292e+01  1.81945e+01
       H  1.54800e+01  1.24405e+01  1.77209e+01
       H  1.43151e+01  9.99626e+00  1.97372e+01
       H  1.75759e+01  9.99451e+00  1.88089e+01
       C  1.48718e+01  8.94521e+00  1.58777e+01
       O  1.26385e+01  8.71542e+00  1.53160e+01
       N  1.68539e+01  7.73428e+00  1.46953e+01
       H  1.85933e+01  7.84969e+00  1.55327e+01
       C  1.67275e+01  6.16425e+00  1.25278e+01
       C  1.47079e+01  6.16551e+00  1.08054e+01
       H  1.31506e+01  7.46949e+00  1.10241e+01
       C  1.47318e+01  4.54429e+00  8.70913e+00
       H  1.31930e+01  4.57530e+00  7.35855e+00
       C  1.87879e+01  4.56387e+00  1.20883e+01
       H  2.03446e+01  4.54357e+00  1.34192e+01
       C  1.88049e+01  2.91015e+00  1.00094e+01
       H  2.03716e+01  1.62006e+00  9.76388e+00
       C  1.67559e+01  2.91347e+00  8.34999e+00
       O  1.66472e+01  1.27951e+00  6.32441e+00
       H  1.83840e+01  6.95136e-01  5.94590e+00
       C  1.22132e+01  1.90697e+01  1.50470e+01
       H  1.03132e+01  1.86607e+01  1.44061e+01
       H  1.34781e+01  1.86292e+01  1.34769e+01
       H  1.23544e+01  2.10720e+01  1.54825e+01
       C  1.29675e+01  1.75815e+01  1.73354e+01
       O  1.52017e+01  1.73819e+01  1.78625e+01
       N  1.09903e+01  1.63725e+01  1.85185e+01
       H  9.25354e+00  1.64869e+01  1.76785e+01
       C  1.11346e+01  1.48074e+01  2.06830e+01
       C  9.07803e+00  1.32072e+01  2.11228e+01
       H  7.52105e+00  1.31857e+01  1.97924e+01
       C  9.05937e+00  1.15528e+01  2.32019e+01
       H  7.49267e+00  1.02607e+01  2.34483e+01
       C  1.31577e+01  1.48107e+01  2.24023e+01
       H  1.47160e+01  1.61146e+01  2.21838e+01
       C  1.31330e+01  1.31884e+01  2.45008e+01