LAMMPS (17 Nov 2016)
Reading data file ...
  triclinic box = (-3.4858 -4.57323 -6.40482) to (3.4858 4.57323 6.40482) with tilt (1.1 1.1 1.1)
  1 by 1 by 1 MPI processor grid
  reading atoms ...
  80 atoms
  scanning bonds ...
  3 = max bonds/atom
  scanning angles ...
  6 = max angles/atom
  scanning dihedrals ...
  18 = max dihedrals/atom
  scanning impropers ...
  2 = max impropers/atom
  reading bonds ...
  80 bonds
  reading angles ...
  124 angles
  reading dihedrals ...
  224 dihedrals
  reading impropers ...
  32 impropers
Finding 1-2 1-3 1-4 neighbors ...
 Special bond factors lj:   0          0          0         
 Special bond factors coul: 0          0          0         
  4 = max # of 1-2 neighbors
  6 = max # of 1-3 neighbors
  12 = max # of 1-4 neighbors
  14 = max # of special neighbors
PPPM initialization ...
WARNING: Using 12-bit tables for long-range coulomb (../kspace.cpp:317)
  G vector (1/distance) = 0.272429
  grid = 5 6 8
  stencil order = 5
  estimated absolute RMS force accuracy = 0.00493156
  estimated relative force accuracy = 1.48512e-05
  using double precision FFTs
  3d grid and FFT values/proc = 2340 240
Neighbor list info ...
  1 neighbor list requests
  update every 1 steps, delay 0 steps, check yes
  max neighbors/atom: 2000, page size: 100000
  master list distance cutoff = 12
  ghost atom cutoff = 12
  binsize = 6, bins = 2 2 3
Setting up Verlet run ...
  Unit style    : real
  Current step  : 0
  Time step     : 1
WARNING: Bond/angle/dihedral extent > half of periodic box length (../domain.cpp:906)
Memory usage per processor = 14.9948 Mbytes
Step Temp E_pair E_mol TotEng Press 
       0            0 6.0895677e+08    53.653003 6.0895683e+08 2.0448259e+11 
READING POSITION FROM IPI1
READING POSITION FROM IPI2
READING POSITION FROM IPI3
READING POSITION FROM IPI4
READING POSITION FROM IPI5
READING POSITION FROM IPI6
READING POSITION FROM IPI7
READING POSITION FROM IPI8
READING POSITION FROM IPI9
READING POSITION FROM IPI10
READING POSITION FROM IPI11
READING POSITION FROM IPI12
READING POSITION FROM IPI13
READING POSITION FROM IPI14
READING POSITION FROM IPI15
READING POSITION FROM IPI16
READING POSITION FROM IPI17
READING POSITION FROM IPI18
READING POSITION FROM IPI19
READING POSITION FROM IPI20
READING POSITION FROM IPI21
READING POSITION FROM IPI22
READING POSITION FROM IPI23
READING POSITION FROM IPI24
READING POSITION FROM IPI25
READING POSITION FROM IPI26
READING POSITION FROM IPI27
READING POSITION FROM IPI28
READING POSITION FROM IPI29
READING POSITION FROM IPI30
READING POSITION FROM IPI31
READING POSITION FROM IPI32
READING POSITION FROM IPI33
READING POSITION FROM IPI34
READING POSITION FROM IPI35
READING POSITION FROM IPI36
READING POSITION FROM IPI37
READING POSITION FROM IPI38
READING POSITION FROM IPI39
READING POSITION FROM IPI40
READING POSITION FROM IPI41
READING POSITION FROM IPI42
READING POSITION FROM IPI43
READING POSITION FROM IPI44
READING POSITION FROM IPI45
READING POSITION FROM IPI46
READING POSITION FROM IPI47
READING POSITION FROM IPI48
READING POSITION FROM IPI49
READING POSITION FROM IPI50
READING POSITION FROM IPI51
READING POSITION FROM IPI52
READING POSITION FROM IPI53
READING POSITION FROM IPI54
READING POSITION FROM IPI55
READING POSITION FROM IPI56
READING POSITION FROM IPI57
READING POSITION FROM IPI58
READING POSITION FROM IPI59
READING POSITION FROM IPI60
READING POSITION FROM IPI61
READING POSITION FROM IPI62
READING POSITION FROM IPI63
READING POSITION FROM IPI64
READING POSITION FROM IPI65
READING POSITION FROM IPI66
READING POSITION FROM IPI67
READING POSITION FROM IPI68
READING POSITION FROM IPI69
READING POSITION FROM IPI70
READING POSITION FROM IPI71
READING POSITION FROM IPI72
READING POSITION FROM IPI73
READING POSITION FROM IPI74
READING POSITION FROM IPI75
READING POSITION FROM IPI76
READING POSITION FROM IPI77
READING POSITION FROM IPI78
READING POSITION FROM IPI79
READING POSITION FROM IPI80
READING POSITION FROM IPI81
READING POSITION FROM IPI82
READING POSITION FROM IPI83
READING POSITION FROM IPI84
READING POSITION FROM IPI85
READING POSITION FROM IPI86
READING POSITION FROM IPI87
READING POSITION FROM IPI88
READING POSITION FROM IPI89
READING POSITION FROM IPI90
READING POSITION FROM IPI91
READING POSITION FROM IPI92
READING POSITION FROM IPI93
READING POSITION FROM IPI94
READING POSITION FROM IPI95
READING POSITION FROM IPI96
READING POSITION FROM IPI97
READING POSITION FROM IPI98
READING POSITION FROM IPI99
READING POSITION FROM IPI100
     100            0   -325.75933    47.740459   -278.01887   -6535.2114 
READING POSITION FROM IPI101
READING POSITION FROM IPI102
READING POSITION FROM IPI103
READING POSITION FROM IPI104
READING POSITION FROM IPI105
READING POSITION FROM IPI106
READING POSITION FROM IPI107
READING POSITION FROM IPI108
READING POSITION FROM IPI109
READING POSITION FROM IPI110
READING POSITION FROM IPI111
READING POSITION FROM IPI112
READING POSITION FROM IPI113
READING POSITION FROM IPI114
READING POSITION FROM IPI115
READING POSITION FROM IPI116
READING POSITION FROM IPI117
READING POSITION FROM IPI118
READING POSITION FROM IPI119
READING POSITION FROM IPI120
READING POSITION FROM IPI121
READING POSITION FROM IPI122
READING POSITION FROM IPI123
READING POSITION FROM IPI124
READING POSITION FROM IPI125
READING POSITION FROM IPI126
READING POSITION FROM IPI127
READING POSITION FROM IPI128
READING POSITION FROM IPI129
READING POSITION FROM IPI130
READING POSITION FROM IPI131
READING POSITION FROM IPI132
READING POSITION FROM IPI133
READING POSITION FROM IPI134
READING POSITION FROM IPI135
READING POSITION FROM IPI136
READING POSITION FROM IPI137
READING POSITION FROM IPI138
READING POSITION FROM IPI139
READING POSITION FROM IPI140
READING POSITION FROM IPI141
READING POSITION FROM IPI142
READING POSITION FROM IPI143
READING POSITION FROM IPI144
READING POSITION FROM IPI145
READING POSITION FROM IPI146
READING POSITION FROM IPI147
READING POSITION FROM IPI148
READING POSITION FROM IPI149
READING POSITION FROM IPI150
READING POSITION FROM IPI151
READING POSITION FROM IPI152
READING POSITION FROM IPI153
READING POSITION FROM IPI154
READING POSITION FROM IPI155
READING POSITION FROM IPI156
READING POSITION FROM IPI157
READING POSITION FROM IPI158
READING POSITION FROM IPI159
READING POSITION FROM IPI160
READING POSITION FROM IPI161
READING POSITION FROM IPI162
READING POSITION FROM IPI163
READING POSITION FROM IPI164
READING POSITION FROM IPI165
READING POSITION FROM IPI166
READING POSITION FROM IPI167
READING POSITION FROM IPI168
READING POSITION FROM IPI169
READING POSITION FROM IPI170
READING POSITION FROM IPI171
READING POSITION FROM IPI172
READING POSITION FROM IPI173
READING POSITION FROM IPI174
READING POSITION FROM IPI175
READING POSITION FROM IPI176
READING POSITION FROM IPI177
READING POSITION FROM IPI178
READING POSITION FROM IPI179
READING POSITION FROM IPI180
READING POSITION FROM IPI181
READING POSITION FROM IPI182
READING POSITION FROM IPI183
READING POSITION FROM IPI184
READING POSITION FROM IPI185
READING POSITION FROM IPI186
READING POSITION FROM IPI187
READING POSITION FROM IPI188
READING POSITION FROM IPI189
READING POSITION FROM IPI190
READING POSITION FROM IPI191
READING POSITION FROM IPI192
READING POSITION FROM IPI193
READING POSITION FROM IPI194
READING POSITION FROM IPI195
READING POSITION FROM IPI196
READING POSITION FROM IPI197
READING POSITION FROM IPI198
READING POSITION FROM IPI199
READING POSITION FROM IPI200
     200            0   -325.41009    44.645689    -280.7644   -4760.0629 
READING POSITION FROM IPI201
READING POSITION FROM IPI202
READING POSITION FROM IPI203
READING POSITION FROM IPI204
READING POSITION FROM IPI205
READING POSITION FROM IPI206
READING POSITION FROM IPI207
READING POSITION FROM IPI208
READING POSITION FROM IPI209
READING POSITION FROM IPI210
READING POSITION FROM IPI211
READING POSITION FROM IPI212
READING POSITION FROM IPI213
READING POSITION FROM IPI214
READING POSITION FROM IPI215
READING POSITION FROM IPI216
READING POSITION FROM IPI217
READING POSITION FROM IPI218
READING POSITION FROM IPI219
READING POSITION FROM IPI220
READING POSITION FROM IPI221
READING POSITION FROM IPI222
READING POSITION FROM IPI223
READING POSITION FROM IPI224
READING POSITION FROM IPI225
READING POSITION FROM IPI226
READING POSITION FROM IPI227
READING POSITION FROM IPI228
READING POSITION FROM IPI229
READING POSITION FROM IPI230
READING POSITION FROM IPI231
READING POSITION FROM IPI232
READING POSITION FROM IPI233
READING POSITION FROM IPI234
READING POSITION FROM IPI235
READING POSITION FROM IPI236
READING POSITION FROM IPI237
READING POSITION FROM IPI238
READING POSITION FROM IPI239
READING POSITION FROM IPI240
READING POSITION FROM IPI241
READING POSITION FROM IPI242
READING POSITION FROM IPI243
READING POSITION FROM IPI244
READING POSITION FROM IPI245
READING POSITION FROM IPI246
READING POSITION FROM IPI247
READING POSITION FROM IPI248
READING POSITION FROM IPI249
READING POSITION FROM IPI250
READING POSITION FROM IPI251
READING POSITION FROM IPI252
READING POSITION FROM IPI253
READING POSITION FROM IPI254
READING POSITION FROM IPI255
READING POSITION FROM IPI256
READING POSITION FROM IPI257
READING POSITION FROM IPI258
READING POSITION FROM IPI259
READING POSITION FROM IPI260
READING POSITION FROM IPI261
READING POSITION FROM IPI262
READING POSITION FROM IPI263
READING POSITION FROM IPI264
READING POSITION FROM IPI265
READING POSITION FROM IPI266
READING POSITION FROM IPI267
READING POSITION FROM IPI268
READING POSITION FROM IPI269
READING POSITION FROM IPI270
READING POSITION FROM IPI271
READING POSITION FROM IPI272
READING POSITION FROM IPI273
READING POSITION FROM IPI274
READING POSITION FROM IPI275
READING POSITION FROM IPI276
READING POSITION FROM IPI277
READING POSITION FROM IPI278
READING POSITION FROM IPI279
READING POSITION FROM IPI280
READING POSITION FROM IPI281
READING POSITION FROM IPI282
READING POSITION FROM IPI283
READING POSITION FROM IPI284
READING POSITION FROM IPI285
READING POSITION FROM IPI286
READING POSITION FROM IPI287
READING POSITION FROM IPI288
READING POSITION FROM IPI289
READING POSITION FROM IPI290
READING POSITION FROM IPI291
READING POSITION FROM IPI292
READING POSITION FROM IPI293
READING POSITION FROM IPI294
READING POSITION FROM IPI295
READING POSITION FROM IPI296
READING POSITION FROM IPI297
READING POSITION FROM IPI298
READING POSITION FROM IPI299
READING POSITION FROM IPI300
     300            0   -325.57783    43.684248   -281.89359    -5602.749 
READING POSITION FROM IPI301
READING POSITION FROM IPI302
READING POSITION FROM IPI303
READING POSITION FROM IPI304
READING POSITION FROM IPI305
READING POSITION FROM IPI306
READING POSITION FROM IPI307
READING POSITION FROM IPI308
READING POSITION FROM IPI309
READING POSITION FROM IPI310
READING POSITION FROM IPI311
READING POSITION FROM IPI312
READING POSITION FROM IPI313
READING POSITION FROM IPI314
READING POSITION FROM IPI315
READING POSITION FROM IPI316
READING POSITION FROM IPI317
READING POSITION FROM IPI318
READING POSITION FROM IPI319
READING POSITION FROM IPI320
READING POSITION FROM IPI321
READING POSITION FROM IPI322
READING POSITION FROM IPI323
READING POSITION FROM IPI324
READING POSITION FROM IPI325
READING POSITION FROM IPI326
READING POSITION FROM IPI327
READING POSITION FROM IPI328
READING POSITION FROM IPI329
READING POSITION FROM IPI330
READING POSITION FROM IPI331
READING POSITION FROM IPI332
READING POSITION FROM IPI333
READING POSITION FROM IPI334
READING POSITION FROM IPI335
READING POSITION FROM IPI336
READING POSITION FROM IPI337
READING POSITION FROM IPI338
READING POSITION FROM IPI339
READING POSITION FROM IPI340
READING POSITION FROM IPI341
READING POSITION FROM IPI342
READING POSITION FROM IPI343
READING POSITION FROM IPI344
READING POSITION FROM IPI345
READING POSITION FROM IPI346
READING POSITION FROM IPI347
READING POSITION FROM IPI348
READING POSITION FROM IPI349
READING POSITION FROM IPI350
READING POSITION FROM IPI351
READING POSITION FROM IPI352
READING POSITION FROM IPI353
READING POSITION FROM IPI354
READING POSITION FROM IPI355
READING POSITION FROM IPI356
READING POSITION FROM IPI357
READING POSITION FROM IPI358
READING POSITION FROM IPI359
READING POSITION FROM IPI360
READING POSITION FROM IPI361
READING POSITION FROM IPI362
READING POSITION FROM IPI363
READING POSITION FROM IPI364
READING POSITION FROM IPI365
READING POSITION FROM IPI366
READING POSITION FROM IPI367
READING POSITION FROM IPI368
READING POSITION FROM IPI369
READING POSITION FROM IPI370
READING POSITION FROM IPI371
READING POSITION FROM IPI372
READING POSITION FROM IPI373
READING POSITION FROM IPI374
READING POSITION FROM IPI375
READING POSITION FROM IPI376
READING POSITION FROM IPI377
READING POSITION FROM IPI378
READING POSITION FROM IPI379
READING POSITION FROM IPI380
READING POSITION FROM IPI381
READING POSITION FROM IPI382
READING POSITION FROM IPI383
READING POSITION FROM IPI384
READING POSITION FROM IPI385
READING POSITION FROM IPI386
READING POSITION FROM IPI387
READING POSITION FROM IPI388
READING POSITION FROM IPI389
READING POSITION FROM IPI390
READING POSITION FROM IPI391
READING POSITION FROM IPI392
READING POSITION FROM IPI393
READING POSITION FROM IPI394
READING POSITION FROM IPI395
READING POSITION FROM IPI396
READING POSITION FROM IPI397
READING POSITION FROM IPI398
READING POSITION FROM IPI399
READING POSITION FROM IPI400
     400            0   -325.22756    42.326753   -282.90081   -4021.7386 
READING POSITION FROM IPI401
READING POSITION FROM IPI402
READING POSITION FROM IPI403
READING POSITION FROM IPI404
READING POSITION FROM IPI405
READING POSITION FROM IPI406
READING POSITION FROM IPI407
READING POSITION FROM IPI408
READING POSITION FROM IPI409
READING POSITION FROM IPI410
READING POSITION FROM IPI411
READING POSITION FROM IPI412
READING POSITION FROM IPI413
READING POSITION FROM IPI414
READING POSITION FROM IPI415
READING POSITION FROM IPI416
READING POSITION FROM IPI417
READING POSITION FROM IPI418
READING POSITION FROM IPI419
READING POSITION FROM IPI420
READING POSITION FROM IPI421
READING POSITION FROM IPI422
READING POSITION FROM IPI423
READING POSITION FROM IPI424
READING POSITION FROM IPI425
READING POSITION FROM IPI426
READING POSITION FROM IPI427
READING POSITION FROM IPI428
READING POSITION FROM IPI429
READING POSITION FROM IPI430
READING POSITION FROM IPI431
READING POSITION FROM IPI432
READING POSITION FROM IPI433
READING POSITION FROM IPI434
READING POSITION FROM IPI435
READING POSITION FROM IPI436
READING POSITION FROM IPI437
READING POSITION FROM IPI438
READING POSITION FROM IPI439
READING POSITION FROM IPI440
READING POSITION FROM IPI441
READING POSITION FROM IPI442
READING POSITION FROM IPI443
READING POSITION FROM IPI444
READING POSITION FROM IPI445
READING POSITION FROM IPI446
READING POSITION FROM IPI447
READING POSITION FROM IPI448
READING POSITION FROM IPI449
READING POSITION FROM IPI450
READING POSITION FROM IPI451
READING POSITION FROM IPI452
READING POSITION FROM IPI453
READING POSITION FROM IPI454
READING POSITION FROM IPI455
READING POSITION FROM IPI456
READING POSITION FROM IPI457
READING POSITION FROM IPI458
READING POSITION FROM IPI459
READING POSITION FROM IPI460
READING POSITION FROM IPI461
READING POSITION FROM IPI462
READING POSITION FROM IPI463
READING POSITION FROM IPI464
READING POSITION FROM IPI465
READING POSITION FROM IPI466
READING POSITION FROM IPI467
READING POSITION FROM IPI468
READING POSITION FROM IPI469
READING POSITION FROM IPI470
READING POSITION FROM IPI471
READING POSITION FROM IPI472
READING POSITION FROM IPI473
READING POSITION FROM IPI474
READING POSITION FROM IPI475
READING POSITION FROM IPI476
READING POSITION FROM IPI477
READING POSITION FROM IPI478
READING POSITION FROM IPI479
READING POSITION FROM IPI480
READING POSITION FROM IPI481
READING POSITION FROM IPI482
READING POSITION FROM IPI483
READING POSITION FROM IPI484
READING POSITION FROM IPI485
READING POSITION FROM IPI486
READING POSITION FROM IPI487
READING POSITION FROM IPI488
READING POSITION FROM IPI489
READING POSITION FROM IPI490
READING POSITION FROM IPI491
READING POSITION FROM IPI492
READING POSITION FROM IPI493
READING POSITION FROM IPI494
READING POSITION FROM IPI495
READING POSITION FROM IPI496
READING POSITION FROM IPI497
READING POSITION FROM IPI498
READING POSITION FROM IPI499
READING POSITION FROM IPI500
     500            0   -325.10807    41.574881   -283.53319   -3662.1241 
READING POSITION FROM IPI501
READING POSITION FROM IPI502
READING POSITION FROM IPI503
READING POSITION FROM IPI504
READING POSITION FROM IPI505
READING POSITION FROM IPI506
READING POSITION FROM IPI507
READING POSITION FROM IPI508
READING POSITION FROM IPI509
READING POSITION FROM IPI510
READING POSITION FROM IPI511
READING POSITION FROM IPI512
READING POSITION FROM IPI513
READING POSITION FROM IPI514
READING POSITION FROM IPI515
READING POSITION FROM IPI516
READING POSITION FROM IPI517
READING POSITION FROM IPI518
READING POSITION FROM IPI519
READING POSITION FROM IPI520
READING POSITION FROM IPI521
READING POSITION FROM IPI522
READING POSITION FROM IPI523
READING POSITION FROM IPI524
READING POSITION FROM IPI525
READING POSITION FROM IPI526
READING POSITION FROM IPI527
READING POSITION FROM IPI528
READING POSITION FROM IPI529
READING POSITION FROM IPI530
READING POSITION FROM IPI531
READING POSITION FROM IPI532
READING POSITION FROM IPI533
READING POSITION FROM IPI534
READING POSITION FROM IPI535
READING POSITION FROM IPI536
READING POSITION FROM IPI537
READING POSITION FROM IPI538
READING POSITION FROM IPI539
READING POSITION FROM IPI540
READING POSITION FROM IPI541
READING POSITION FROM IPI542
READING POSITION FROM IPI543
READING POSITION FROM IPI544
READING POSITION FROM IPI545
READING POSITION FROM IPI546
READING POSITION FROM IPI547
READING POSITION FROM IPI548
READING POSITION FROM IPI549
READING POSITION FROM IPI550
READING POSITION FROM IPI551
READING POSITION FROM IPI552
READING POSITION FROM IPI553
READING POSITION FROM IPI554
READING POSITION FROM IPI555
READING POSITION FROM IPI556
READING POSITION FROM IPI557
READING POSITION FROM IPI558
READING POSITION FROM IPI559
READING POSITION FROM IPI560
READING POSITION FROM IPI561
READING POSITION FROM IPI562
READING POSITION FROM IPI563
READING POSITION FROM IPI564
READING POSITION FROM IPI565
READING POSITION FROM IPI566
READING POSITION FROM IPI567
READING POSITION FROM IPI568
READING POSITION FROM IPI569
READING POSITION FROM IPI570
READING POSITION FROM IPI571
READING POSITION FROM IPI572
READING POSITION FROM IPI573
READING POSITION FROM IPI574
READING POSITION FROM IPI575
READING POSITION FROM IPI576
READING POSITION FROM IPI577
READING POSITION FROM IPI578
READING POSITION FROM IPI579
READING POSITION FROM IPI580
READING POSITION FROM IPI581
READING POSITION FROM IPI582
READING POSITION FROM IPI583
READING POSITION FROM IPI584
READING POSITION FROM IPI585
READING POSITION FROM IPI586
READING POSITION FROM IPI587
READING POSITION FROM IPI588
READING POSITION FROM IPI589
READING POSITION FROM IPI590
READING POSITION FROM IPI591
READING POSITION FROM IPI592
READING POSITION FROM IPI593
READING POSITION FROM IPI594
READING POSITION FROM IPI595
READING POSITION FROM IPI596
READING POSITION FROM IPI597
READING POSITION FROM IPI598
READING POSITION FROM IPI599
READING POSITION FROM IPI600
     600            0   -325.16031    41.224535   -283.93578   -4153.7979 
READING POSITION FROM IPI601
READING POSITION FROM IPI602
READING POSITION FROM IPI603
READING POSITION FROM IPI604
READING POSITION FROM IPI605
READING POSITION FROM IPI606
READING POSITION FROM IPI607
READING POSITION FROM IPI608
READING POSITION FROM IPI609
READING POSITION FROM IPI610
READING POSITION FROM IPI611
READING POSITION FROM IPI612
READING POSITION FROM IPI613
READING POSITION FROM IPI614
READING POSITION FROM IPI615
READING POSITION FROM IPI616
READING POSITION FROM IPI617
READING POSITION FROM IPI618
READING POSITION FROM IPI619
READING POSITION FROM IPI620
READING POSITION FROM IPI621
READING POSITION FROM IPI622
READING POSITION FROM IPI623
READING POSITION FROM IPI624
READING POSITION FROM IPI625
READING POSITION FROM IPI626
READING POSITION FROM IPI627
READING POSITION FROM IPI628
READING POSITION FROM IPI629
READING POSITION FROM IPI630
READING POSITION FROM IPI631
READING POSITION FROM IPI632
READING POSITION FROM IPI633
READING POSITION FROM IPI634
READING POSITION FROM IPI635
READING POSITION FROM IPI636
READING POSITION FROM IPI637
READING POSITION FROM IPI638
READING POSITION FROM IPI639
READING POSITION FROM IPI640
READING POSITION FROM IPI641
READING POSITION FROM IPI642
READING POSITION FROM IPI643
READING POSITION FROM IPI644
READING POSITION FROM IPI645
READING POSITION FROM IPI646
READING POSITION FROM IPI647
READING POSITION FROM IPI648
READING POSITION FROM IPI649
READING POSITION FROM IPI650
READING POSITION FROM IPI651
READING POSITION FROM IPI652
READING POSITION FROM IPI653
READING POSITION FROM IPI654
READING POSITION FROM IPI655
READING POSITION FROM IPI656
READING POSITION FROM IPI657
READING POSITION FROM IPI658
READING POSITION FROM IPI659
READING POSITION FROM IPI660
READING POSITION FROM IPI661
READING POSITION FROM IPI662
READING POSITION FROM IPI663
READING POSITION FROM IPI664
READING POSITION FROM IPI665
READING POSITION FROM IPI666
READING POSITION FROM IPI667
READING POSITION FROM IPI668
READING POSITION FROM IPI669
READING POSITION FROM IPI670
READING POSITION FROM IPI671
READING POSITION FROM IPI672
READING POSITION FROM IPI673
READING POSITION FROM IPI674
READING POSITION FROM IPI675
READING POSITION FROM IPI676
READING POSITION FROM IPI677
READING POSITION FROM IPI678
READING POSITION FROM IPI679
READING POSITION FROM IPI680
READING POSITION FROM IPI681
READING POSITION FROM IPI682
READING POSITION FROM IPI683
READING POSITION FROM IPI684
READING POSITION FROM IPI685
READING POSITION FROM IPI686
READING POSITION FROM IPI687
READING POSITION FROM IPI688
READING POSITION FROM IPI689
READING POSITION FROM IPI690
READING POSITION FROM IPI691
READING POSITION FROM IPI692
READING POSITION FROM IPI693
READING POSITION FROM IPI694
READING POSITION FROM IPI695
READING POSITION FROM IPI696
READING POSITION FROM IPI697
READING POSITION FROM IPI698
READING POSITION FROM IPI699
READING POSITION FROM IPI700
     700            0   -324.96372    40.585983   -284.37774   -3549.9378 
READING POSITION FROM IPI701
READING POSITION FROM IPI702
READING POSITION FROM IPI703
READING POSITION FROM IPI704
READING POSITION FROM IPI705
READING POSITION FROM IPI706
READING POSITION FROM IPI707
READING POSITION FROM IPI708
READING POSITION FROM IPI709
READING POSITION FROM IPI710
READING POSITION FROM IPI711
READING POSITION FROM IPI712
READING POSITION FROM IPI713
READING POSITION FROM IPI714
READING POSITION FROM IPI715
READING POSITION FROM IPI716
READING POSITION FROM IPI717
READING POSITION FROM IPI718
READING POSITION FROM IPI719
READING POSITION FROM IPI720
READING POSITION FROM IPI721
READING POSITION FROM IPI722
READING POSITION FROM IPI723
READING POSITION FROM IPI724
READING POSITION FROM IPI725
READING POSITION FROM IPI726
READING POSITION FROM IPI727
READING POSITION FROM IPI728
READING POSITION FROM IPI729
READING POSITION FROM IPI730
READING POSITION FROM IPI731
READING POSITION FROM IPI732
READING POSITION FROM IPI733
READING POSITION FROM IPI734
READING POSITION FROM IPI735
READING POSITION FROM IPI736
READING POSITION FROM IPI737
READING POSITION FROM IPI738
READING POSITION FROM IPI739
READING POSITION FROM IPI740
READING POSITION FROM IPI741
READING POSITION FROM IPI742
READING POSITION FROM IPI743
READING POSITION FROM IPI744
READING POSITION FROM IPI745
READING POSITION FROM IPI746
READING POSITION FROM IPI747
READING POSITION FROM IPI748
READING POSITION FROM IPI749
READING POSITION FROM IPI750
READING POSITION FROM IPI751
READING POSITION FROM IPI752
READING POSITION FROM IPI753
READING POSITION FROM IPI754
READING POSITION FROM IPI755
READING POSITION FROM IPI756
READING POSITION FROM IPI757
READING POSITION FROM IPI758
READING POSITION FROM IPI759
READING POSITION FROM IPI760
READING POSITION FROM IPI761
READING POSITION FROM IPI762
READING POSITION FROM IPI763
READING POSITION FROM IPI764
READING POSITION FROM IPI765
READING POSITION FROM IPI766
READING POSITION FROM IPI767
READING POSITION FROM IPI768
READING POSITION FROM IPI769
READING POSITION FROM IPI770
READING POSITION FROM IPI771
READING POSITION FROM IPI772
READING POSITION FROM IPI773
READING POSITION FROM IPI774
READING POSITION FROM IPI775
READING POSITION FROM IPI776
READING POSITION FROM IPI777
READING POSITION FROM IPI778
READING POSITION FROM IPI779
READING POSITION FROM IPI780
READING POSITION FROM IPI781
READING POSITION FROM IPI782
READING POSITION FROM IPI783
READING POSITION FROM IPI784
READING POSITION FROM IPI785
READING POSITION FROM IPI786
READING POSITION FROM IPI787
READING POSITION FROM IPI788
READING POSITION FROM IPI789
READING POSITION FROM IPI790
READING POSITION FROM IPI791
READING POSITION FROM IPI792
READING POSITION FROM IPI793
READING POSITION FROM IPI794
READING POSITION FROM IPI795
READING POSITION FROM IPI796
READING POSITION FROM IPI797
READING POSITION FROM IPI798
READING POSITION FROM IPI799
READING POSITION FROM IPI800
     800            0    -324.6458    39.878417   -284.76739    -2443.811 
READING POSITION FROM IPI801
READING POSITION FROM IPI802
READING POSITION FROM IPI803
READING POSITION FROM IPI804
READING POSITION FROM IPI805
READING POSITION FROM IPI806
READING POSITION FROM IPI807
READING POSITION FROM IPI808
READING POSITION FROM IPI809
READING POSITION FROM IPI810
READING POSITION FROM IPI811
READING POSITION FROM IPI812
READING POSITION FROM IPI813
READING POSITION FROM IPI814
READING POSITION FROM IPI815
READING POSITION FROM IPI816
READING POSITION FROM IPI817
READING POSITION FROM IPI818
READING POSITION FROM IPI819
READING POSITION FROM IPI820
READING POSITION FROM IPI821
READING POSITION FROM IPI822
READING POSITION FROM IPI823
READING POSITION FROM IPI824
READING POSITION FROM IPI825
READING POSITION FROM IPI826
READING POSITION FROM IPI827
READING POSITION FROM IPI828
READING POSITION FROM IPI829
READING POSITION FROM IPI830
READING POSITION FROM IPI831
READING POSITION FROM IPI832
READING POSITION FROM IPI833
READING POSITION FROM IPI834
READING POSITION FROM IPI835
READING POSITION FROM IPI836
READING POSITION FROM IPI837
READING POSITION FROM IPI838
READING POSITION FROM IPI839
READING POSITION FROM IPI840
READING POSITION FROM IPI841
READING POSITION FROM IPI842
READING POSITION FROM IPI843
READING POSITION FROM IPI844
READING POSITION FROM IPI845
READING POSITION FROM IPI846
READING POSITION FROM IPI847
READING POSITION FROM IPI848
READING POSITION FROM IPI849
READING POSITION FROM IPI850
READING POSITION FROM IPI851
READING POSITION FROM IPI852
READING POSITION FROM IPI853
READING POSITION FROM IPI854
READING POSITION FROM IPI855
READING POSITION FROM IPI856
READING POSITION FROM IPI857
READING POSITION FROM IPI858
READING POSITION FROM IPI859
READING POSITION FROM IPI860
READING POSITION FROM IPI861
READING POSITION FROM IPI862
READING POSITION FROM IPI863
READING POSITION FROM IPI864
READING POSITION FROM IPI865
READING POSITION FROM IPI866
READING POSITION FROM IPI867
READING POSITION FROM IPI868
READING POSITION FROM IPI869
READING POSITION FROM IPI870
READING POSITION FROM IPI871
READING POSITION FROM IPI872
READING POSITION FROM IPI873
READING POSITION FROM IPI874
READING POSITION FROM IPI875
READING POSITION FROM IPI876
READING POSITION FROM IPI877
READING POSITION FROM IPI878
READING POSITION FROM IPI879
READING POSITION FROM IPI880
READING POSITION FROM IPI881
READING POSITION FROM IPI882
READING POSITION FROM IPI883
READING POSITION FROM IPI884
READING POSITION FROM IPI885
READING POSITION FROM IPI886
READING POSITION FROM IPI887
READING POSITION FROM IPI888
READING POSITION FROM IPI889
READING POSITION FROM IPI890
READING POSITION FROM IPI891
READING POSITION FROM IPI892
READING POSITION FROM IPI893
READING POSITION FROM IPI894
READING POSITION FROM IPI895
READING POSITION FROM IPI896
READING POSITION FROM IPI897
READING POSITION FROM IPI898
READING POSITION FROM IPI899
READING POSITION FROM IPI900
     900            0   -324.48987    39.436298   -285.05357    -2075.189 
READING POSITION FROM IPI901
READING POSITION FROM IPI902
READING POSITION FROM IPI903
READING POSITION FROM IPI904
READING POSITION FROM IPI905
READING POSITION FROM IPI906
READING POSITION FROM IPI907
READING POSITION FROM IPI908
READING POSITION FROM IPI909
READING POSITION FROM IPI910
READING POSITION FROM IPI911
READING POSITION FROM IPI912
READING POSITION FROM IPI913
READING POSITION FROM IPI914
READING POSITION FROM IPI915
READING POSITION FROM IPI916
READING POSITION FROM IPI917
READING POSITION FROM IPI918
READING POSITION FROM IPI919
READING POSITION FROM IPI920
READING POSITION FROM IPI921
READING POSITION FROM IPI922
READING POSITION FROM IPI923
READING POSITION FROM IPI924
READING POSITION FROM IPI925
READING POSITION FROM IPI926
READING POSITION FROM IPI927
READING POSITION FROM IPI928
READING POSITION FROM IPI929
READING POSITION FROM IPI930
READING POSITION FROM IPI931
READING POSITION FROM IPI932
READING POSITION FROM IPI933
READING POSITION FROM IPI934
READING POSITION FROM IPI935
READING POSITION FROM IPI936
READING POSITION FROM IPI937
READING POSITION FROM IPI938
READING POSITION FROM IPI939
READING POSITION FROM IPI940
READING POSITION FROM IPI941
READING POSITION FROM IPI942
READING POSITION FROM IPI943
READING POSITION FROM IPI944
READING POSITION FROM IPI945
READING POSITION FROM IPI946
READING POSITION FROM IPI947
READING POSITION FROM IPI948
READING POSITION FROM IPI949
READING POSITION FROM IPI950
READING POSITION FROM IPI951
READING POSITION FROM IPI952
READING POSITION FROM IPI953
READING POSITION FROM IPI954
READING POSITION FROM IPI955
READING POSITION FROM IPI956
READING POSITION FROM IPI957
READING POSITION FROM IPI958
READING POSITION FROM IPI959
READING POSITION FROM IPI960
READING POSITION FROM IPI961
READING POSITION FROM IPI962
READING POSITION FROM IPI963
READING POSITION FROM IPI964
READING POSITION FROM IPI965
READING POSITION FROM IPI966
READING POSITION FROM IPI967
READING POSITION FROM IPI968
READING POSITION FROM IPI969
READING POSITION FROM IPI970
READING POSITION FROM IPI971
READING POSITION FROM IPI972
READING POSITION FROM IPI973
READING POSITION FROM IPI974
READING POSITION FROM IPI975
READING POSITION FROM IPI976
READING POSITION FROM IPI977
READING POSITION FROM IPI978
READING POSITION FROM IPI979
READING POSITION FROM IPI980
READING POSITION FROM IPI981
READING POSITION FROM IPI982
READING POSITION FROM IPI983
READING POSITION FROM IPI984
READING POSITION FROM IPI985
READING POSITION FROM IPI986
READING POSITION FROM IPI987
READING POSITION FROM IPI988
READING POSITION FROM IPI989
READING POSITION FROM IPI990
READING POSITION FROM IPI991
READING POSITION FROM IPI992
READING POSITION FROM IPI993
READING POSITION FROM IPI994
READING POSITION FROM IPI995
READING POSITION FROM IPI996
READING POSITION FROM IPI997
READING POSITION FROM IPI998
READING POSITION FROM IPI999
READING POSITION FROM IPI1000
    1000            0   -324.41989    39.113447   -285.30644   -2067.0777 
READING POSITION FROM IPI1001
READING POSITION FROM IPI1002
READING POSITION FROM IPI1003
READING POSITION FROM IPI1004
READING POSITION FROM IPI1005
READING POSITION FROM IPI1006
READING POSITION FROM IPI1007
READING POSITION FROM IPI1008
READING POSITION FROM IPI1009
READING POSITION FROM IPI1010
READING POSITION FROM IPI1011
READING POSITION FROM IPI1012
READING POSITION FROM IPI1013
READING POSITION FROM IPI1014
READING POSITION FROM IPI1015
READING POSITION FROM IPI1016
READING POSITION FROM IPI1017
READING POSITION FROM IPI1018
READING POSITION FROM IPI1019
READING POSITION FROM IPI1020
READING POSITION FROM IPI1021
READING POSITION FROM IPI1022
READING POSITION FROM IPI1023
READING POSITION FROM IPI1024
READING POSITION FROM IPI1025
READING POSITION FROM IPI1026
READING POSITION FROM IPI1027
READING POSITION FROM IPI1028
READING POSITION FROM IPI1029
READING POSITION FROM IPI1030
READING POSITION FROM IPI1031
READING POSITION FROM IPI1032
READING POSITION FROM IPI1033
READING POSITION FROM IPI1034
READING POSITION FROM IPI1035
READING POSITION FROM IPI1036
READING POSITION FROM IPI1037
READING POSITION FROM IPI1038
READING POSITION FROM IPI1039
READING POSITION FROM IPI1040
READING POSITION FROM IPI1041
READING POSITION FROM IPI1042
READING POSITION FROM IPI1043
READING POSITION FROM IPI1044
READING POSITION FROM IPI1045
READING POSITION FROM IPI1046
READING POSITION FROM IPI1047
READING POSITION FROM IPI1048
READING POSITION FROM IPI1049
READING POSITION FROM IPI1050
READING POSITION FROM IPI1051
READING POSITION FROM IPI1052
READING POSITION FROM IPI1053
READING POSITION FROM IPI1054
READING POSITION FROM IPI1055
READING POSITION FROM IPI1056
READING POSITION FROM IPI1057
READING POSITION FROM IPI1058
READING POSITION FROM IPI1059
READING POSITION FROM IPI1060
READING POSITION FROM IPI1061
READING POSITION FROM IPI1062
READING POSITION FROM IPI1063
READING POSITION FROM IPI1064
READING POSITION FROM IPI1065
READING POSITION FROM IPI1066
READING POSITION FROM IPI1067
READING POSITION FROM IPI1068
READING POSITION FROM IPI1069
READING POSITION FROM IPI1070
READING POSITION FROM IPI1071
READING POSITION FROM IPI1072
READING POSITION FROM IPI1073
READING POSITION FROM IPI1074
READING POSITION FROM IPI1075
READING POSITION FROM IPI1076
READING POSITION FROM IPI1077
READING POSITION FROM IPI1078
READING POSITION FROM IPI1079
READING POSITION FROM IPI1080
READING POSITION FROM IPI1081
READING POSITION FROM IPI1082
READING POSITION FROM IPI1083
READING POSITION FROM IPI1084
READING POSITION FROM IPI1085
READING POSITION FROM IPI1086
READING POSITION FROM IPI1087
READING POSITION FROM IPI1088
READING POSITION FROM IPI1089
READING POSITION FROM IPI1090
READING POSITION FROM IPI1091
READING POSITION FROM IPI1092
READING POSITION FROM IPI1093
READING POSITION FROM IPI1094
READING POSITION FROM IPI1095
READING POSITION FROM IPI1096
READING POSITION FROM IPI1097
READING POSITION FROM IPI1098
READING POSITION FROM IPI1099
READING POSITION FROM IPI1100
    1100            0   -324.21259      38.6844   -285.52819   -1455.5385 
READING POSITION FROM IPI1101
READING POSITION FROM IPI1102
READING POSITION FROM IPI1103
READING POSITION FROM IPI1104
READING POSITION FROM IPI1105
READING POSITION FROM IPI1106
READING POSITION FROM IPI1107
READING POSITION FROM IPI1108
READING POSITION FROM IPI1109
READING POSITION FROM IPI1110
READING POSITION FROM IPI1111
READING POSITION FROM IPI1112
READING POSITION FROM IPI1113
READING POSITION FROM IPI1114
READING POSITION FROM IPI1115
READING POSITION FROM IPI1116
READING POSITION FROM IPI1117
READING POSITION FROM IPI1118
READING POSITION FROM IPI1119
READING POSITION FROM IPI1120
READING POSITION FROM IPI1121
READING POSITION FROM IPI1122
READING POSITION FROM IPI1123
READING POSITION FROM IPI1124
READING POSITION FROM IPI1125
READING POSITION FROM IPI1126
READING POSITION FROM IPI1127
READING POSITION FROM IPI1128
READING POSITION FROM IPI1129
READING POSITION FROM IPI1130
READING POSITION FROM IPI1131
READING POSITION FROM IPI1132
READING POSITION FROM IPI1133
READING POSITION FROM IPI1134
READING POSITION FROM IPI1135
READING POSITION FROM IPI1136
READING POSITION FROM IPI1137
READING POSITION FROM IPI1138
READING POSITION FROM IPI1139
READING POSITION FROM IPI1140
READING POSITION FROM IPI1141
READING POSITION FROM IPI1142
READING POSITION FROM IPI1143
READING POSITION FROM IPI1144
READING POSITION FROM IPI1145
READING POSITION FROM IPI1146
READING POSITION FROM IPI1147
READING POSITION FROM IPI1148
READING POSITION FROM IPI1149
READING POSITION FROM IPI1150
READING POSITION FROM IPI1151
READING POSITION FROM IPI1152
READING POSITION FROM IPI1153
READING POSITION FROM IPI1154
READING POSITION FROM IPI1155
READING POSITION FROM IPI1156
READING POSITION FROM IPI1157
READING POSITION FROM IPI1158
READING POSITION FROM IPI1159
READING POSITION FROM IPI1160
READING POSITION FROM IPI1161
READING POSITION FROM IPI1162
READING POSITION FROM IPI1163
READING POSITION FROM IPI1164
READING POSITION FROM IPI1165
READING POSITION FROM IPI1166
READING POSITION FROM IPI1167
READING POSITION FROM IPI1168
READING POSITION FROM IPI1169
READING POSITION FROM IPI1170
READING POSITION FROM IPI1171
READING POSITION FROM IPI1172
READING POSITION FROM IPI1173
READING POSITION FROM IPI1174
READING POSITION FROM IPI1175
READING POSITION FROM IPI1176
READING POSITION FROM IPI1177
READING POSITION FROM IPI1178
READING POSITION FROM IPI1179
READING POSITION FROM IPI1180
READING POSITION FROM IPI1181
READING POSITION FROM IPI1182
READING POSITION FROM IPI1183
READING POSITION FROM IPI1184
READING POSITION FROM IPI1185
READING POSITION FROM IPI1186
READING POSITION FROM IPI1187
READING POSITION FROM IPI1188
READING POSITION FROM IPI1189
READING POSITION FROM IPI1190
READING POSITION FROM IPI1191
READING POSITION FROM IPI1192
READING POSITION FROM IPI1193
READING POSITION FROM IPI1194
READING POSITION FROM IPI1195
READING POSITION FROM IPI1196
READING POSITION FROM IPI1197
READING POSITION FROM IPI1198
READING POSITION FROM IPI1199
READING POSITION FROM IPI1200
    1200            0   -324.16425    38.429836   -285.73442   -1517.7736 
READING POSITION FROM IPI1201
READING POSITION FROM IPI1202
READING POSITION FROM IPI1203
READING POSITION FROM IPI1204
READING POSITION FROM IPI1205
READING POSITION FROM IPI1206
READING POSITION FROM IPI1207
READING POSITION FROM IPI1208
READING POSITION FROM IPI1209
READING POSITION FROM IPI1210
READING POSITION FROM IPI1211
READING POSITION FROM IPI1212
READING POSITION FROM IPI1213
READING POSITION FROM IPI1214
READING POSITION FROM IPI1215
READING POSITION FROM IPI1216
READING POSITION FROM IPI1217
READING POSITION FROM IPI1218
READING POSITION FROM IPI1219
READING POSITION FROM IPI1220
READING POSITION FROM IPI1221
READING POSITION FROM IPI1222
READING POSITION FROM IPI1223
READING POSITION FROM IPI1224
READING POSITION FROM IPI1225
READING POSITION FROM IPI1226
READING POSITION FROM IPI1227
READING POSITION FROM IPI1228
READING POSITION FROM IPI1229
READING POSITION FROM IPI1230
READING POSITION FROM IPI1231
READING POSITION FROM IPI1232
READING POSITION FROM IPI1233
READING POSITION FROM IPI1234
READING POSITION FROM IPI1235
READING POSITION FROM IPI1236
READING POSITION FROM IPI1237
READING POSITION FROM IPI1238
READING POSITION FROM IPI1239
READING POSITION FROM IPI1240
READING POSITION FROM IPI1241
READING POSITION FROM IPI1242
READING POSITION FROM IPI1243
READING POSITION FROM IPI1244
READING POSITION FROM IPI1245
READING POSITION FROM IPI1246
READING POSITION FROM IPI1247
READING POSITION FROM IPI1248
READING POSITION FROM IPI1249
READING POSITION FROM IPI1250
READING POSITION FROM IPI1251
READING POSITION FROM IPI1252
READING POSITION FROM IPI1253
READING POSITION FROM IPI1254
READING POSITION FROM IPI1255
READING POSITION FROM IPI1256
READING POSITION FROM IPI1257
READING POSITION FROM IPI1258
READING POSITION FROM IPI1259
READING POSITION FROM IPI1260
READING POSITION FROM IPI1261
READING POSITION FROM IPI1262
READING POSITION FROM IPI1263
READING POSITION FROM IPI1264
READING POSITION FROM IPI1265
READING POSITION FROM IPI1266
READING POSITION FROM IPI1267
READING POSITION FROM IPI1268
READING POSITION FROM IPI1269
READING POSITION FROM IPI1270
READING POSITION FROM IPI1271
READING POSITION FROM IPI1272
READING POSITION FROM IPI1273
READING POSITION FROM IPI1274
READING POSITION FROM IPI1275
READING POSITION FROM IPI1276
READING POSITION FROM IPI1277
READING POSITION FROM IPI1278
READING POSITION FROM IPI1279
READING POSITION FROM IPI1280
READING POSITION FROM IPI1281
READING POSITION FROM IPI1282
READING POSITION FROM IPI1283
READING POSITION FROM IPI1284
READING POSITION FROM IPI1285
READING POSITION FROM IPI1286
READING POSITION FROM IPI1287
READING POSITION FROM IPI1288
READING POSITION FROM IPI1289
READING POSITION FROM IPI1290
READING POSITION FROM IPI1291
READING POSITION FROM IPI1292
READING POSITION FROM IPI1293
READING POSITION FROM IPI1294
READING POSITION FROM IPI1295
READING POSITION FROM IPI1296
READING POSITION FROM IPI1297
READING POSITION FROM IPI1298
READING POSITION FROM IPI1299
READING POSITION FROM IPI1300
    1300            0   -324.04599    38.131299   -285.91469   -1272.2419 
READING POSITION FROM IPI1301
READING POSITION FROM IPI1302
READING POSITION FROM IPI1303
READING POSITION FROM IPI1304
READING POSITION FROM IPI1305
READING POSITION FROM IPI1306
READING POSITION FROM IPI1307
READING POSITION FROM IPI1308
READING POSITION FROM IPI1309
READING POSITION FROM IPI1310
READING POSITION FROM IPI1311
READING POSITION FROM IPI1312
READING POSITION FROM IPI1313
READING POSITION FROM IPI1314
READING POSITION FROM IPI1315
READING POSITION FROM IPI1316
READING POSITION FROM IPI1317
READING POSITION FROM IPI1318
READING POSITION FROM IPI1319
READING POSITION FROM IPI1320
READING POSITION FROM IPI1321
READING POSITION FROM IPI1322
READING POSITION FROM IPI1323
READING POSITION FROM IPI1324
READING POSITION FROM IPI1325
READING POSITION FROM IPI1326
READING POSITION FROM IPI1327
READING POSITION FROM IPI1328
READING POSITION FROM IPI1329
READING POSITION FROM IPI1330
READING POSITION FROM IPI1331
READING POSITION FROM IPI1332
READING POSITION FROM IPI1333
READING POSITION FROM IPI1334
READING POSITION FROM IPI1335
READING POSITION FROM IPI1336
READING POSITION FROM IPI1337
READING POSITION FROM IPI1338
READING POSITION FROM IPI1339
READING POSITION FROM IPI1340
READING POSITION FROM IPI1341
READING POSITION FROM IPI1342
READING POSITION FROM IPI1343
READING POSITION FROM IPI1344
READING POSITION FROM IPI1345
READING POSITION FROM IPI1346
READING POSITION FROM IPI1347
READING POSITION FROM IPI1348
READING POSITION FROM IPI1349
READING POSITION FROM IPI1350
READING POSITION FROM IPI1351
READING POSITION FROM IPI1352
READING POSITION FROM IPI1353
READING POSITION FROM IPI1354
READING POSITION FROM IPI1355
READING POSITION FROM IPI1356
READING POSITION FROM IPI1357
READING POSITION FROM IPI1358
READING POSITION FROM IPI1359
READING POSITION FROM IPI1360
READING POSITION FROM IPI1361
READING POSITION FROM IPI1362
READING POSITION FROM IPI1363
READING POSITION FROM IPI1364
READING POSITION FROM IPI1365
READING POSITION FROM IPI1366
READING POSITION FROM IPI1367
READING POSITION FROM IPI1368
READING POSITION FROM IPI1369
READING POSITION FROM IPI1370
READING POSITION FROM IPI1371
READING POSITION FROM IPI1372
READING POSITION FROM IPI1373
READING POSITION FROM IPI1374
READING POSITION FROM IPI1375
READING POSITION FROM IPI1376
READING POSITION FROM IPI1377
READING POSITION FROM IPI1378
READING POSITION FROM IPI1379
READING POSITION FROM IPI1380
READING POSITION FROM IPI1381
READING POSITION FROM IPI1382
READING POSITION FROM IPI1383
READING POSITION FROM IPI1384
READING POSITION FROM IPI1385
READING POSITION FROM IPI1386
READING POSITION FROM IPI1387
READING POSITION FROM IPI1388
READING POSITION FROM IPI1389
READING POSITION FROM IPI1390
READING POSITION FROM IPI1391
READING POSITION FROM IPI1392
READING POSITION FROM IPI1393
READING POSITION FROM IPI1394
READING POSITION FROM IPI1395
READING POSITION FROM IPI1396
READING POSITION FROM IPI1397
READING POSITION FROM IPI1398
READING POSITION FROM IPI1399
READING POSITION FROM IPI1400
    1400            0   -323.94671    37.867995   -286.07871   -1094.5919 
READING POSITION FROM IPI1401
READING POSITION FROM IPI1402
READING POSITION FROM IPI1403
READING POSITION FROM IPI1404
READING POSITION FROM IPI1405
READING POSITION FROM IPI1406
READING POSITION FROM IPI1407
READING POSITION FROM IPI1408
READING POSITION FROM IPI1409
READING POSITION FROM IPI1410
READING POSITION FROM IPI1411
READING POSITION FROM IPI1412
READING POSITION FROM IPI1413
READING POSITION FROM IPI1414
READING POSITION FROM IPI1415
READING POSITION FROM IPI1416
READING POSITION FROM IPI1417
READING POSITION FROM IPI1418
READING POSITION FROM IPI1419
READING POSITION FROM IPI1420
READING POSITION FROM IPI1421
READING POSITION FROM IPI1422
READING POSITION FROM IPI1423
READING POSITION FROM IPI1424
READING POSITION FROM IPI1425
READING POSITION FROM IPI1426
READING POSITION FROM IPI1427
READING POSITION FROM IPI1428
READING POSITION FROM IPI1429
READING POSITION FROM IPI1430
READING POSITION FROM IPI1431
READING POSITION FROM IPI1432
READING POSITION FROM IPI1433
READING POSITION FROM IPI1434
READING POSITION FROM IPI1435
READING POSITION FROM IPI1436
READING POSITION FROM IPI1437
READING POSITION FROM IPI1438
READING POSITION FROM IPI1439
READING POSITION FROM IPI1440
READING POSITION FROM IPI1441
READING POSITION FROM IPI1442
READING POSITION FROM IPI1443
READING POSITION FROM IPI1444
READING POSITION FROM IPI1445
READING POSITION FROM IPI1446
READING POSITION FROM IPI1447
READING POSITION FROM IPI1448
READING POSITION FROM IPI1449
READING POSITION FROM IPI1450
READING POSITION FROM IPI1451
READING POSITION FROM IPI1452
READING POSITION FROM IPI1453
READING POSITION FROM IPI1454
READING POSITION FROM IPI1455
READING POSITION FROM IPI1456
READING POSITION FROM IPI1457
READING POSITION FROM IPI1458
READING POSITION FROM IPI1459
READING POSITION FROM IPI1460
READING POSITION FROM IPI1461
READING POSITION FROM IPI1462
READING POSITION FROM IPI1463
READING POSITION FROM IPI1464
READING POSITION FROM IPI1465
READING POSITION FROM IPI1466
READING POSITION FROM IPI1467
READING POSITION FROM IPI1468
READING POSITION FROM IPI1469
READING POSITION FROM IPI1470
READING POSITION FROM IPI1471
READING POSITION FROM IPI1472
READING POSITION FROM IPI1473
READING POSITION FROM IPI1474
READING POSITION FROM IPI1475
READING POSITION FROM IPI1476
READING POSITION FROM IPI1477
READING POSITION FROM IPI1478
READING POSITION FROM IPI1479
READING POSITION FROM IPI1480
READING POSITION FROM IPI1481
READING POSITION FROM IPI1482
READING POSITION FROM IPI1483
READING POSITION FROM IPI1484
READING POSITION FROM IPI1485
READING POSITION FROM IPI1486
READING POSITION FROM IPI1487
READING POSITION FROM IPI1488
READING POSITION FROM IPI1489
READING POSITION FROM IPI1490
READING POSITION FROM IPI1491
READING POSITION FROM IPI1492
READING POSITION FROM IPI1493
READING POSITION FROM IPI1494
READING POSITION FROM IPI1495
READING POSITION FROM IPI1496
READING POSITION FROM IPI1497
READING POSITION FROM IPI1498
READING POSITION FROM IPI1499
READING POSITION FROM IPI1500
    1500            0   -323.85692    37.627405   -286.22952    -936.2542 
READING POSITION FROM IPI1501
READING POSITION FROM IPI1502
READING POSITION FROM IPI1503
READING POSITION FROM IPI1504
READING POSITION FROM IPI1505
READING POSITION FROM IPI1506
READING POSITION FROM IPI1507
READING POSITION FROM IPI1508
READING POSITION FROM IPI1509
READING POSITION FROM IPI1510
READING POSITION FROM IPI1511
READING POSITION FROM IPI1512
READING POSITION FROM IPI1513
READING POSITION FROM IPI1514
READING POSITION FROM IPI1515
READING POSITION FROM IPI1516
READING POSITION FROM IPI1517
READING POSITION FROM IPI1518
READING POSITION FROM IPI1519
READING POSITION FROM IPI1520
READING POSITION FROM IPI1521
READING POSITION FROM IPI1522
READING POSITION FROM IPI1523
READING POSITION FROM IPI1524
READING POSITION FROM IPI1525
READING POSITION FROM IPI1526
READING POSITION FROM IPI1527
READING POSITION FROM IPI1528
READING POSITION FROM IPI1529
READING POSITION FROM IPI1530
READING POSITION FROM IPI1531
READING POSITION FROM IPI1532
READING POSITION FROM IPI1533
READING POSITION FROM IPI1534
READING POSITION FROM IPI1535
READING POSITION FROM IPI1536
READING POSITION FROM IPI1537
READING POSITION FROM IPI1538
READING POSITION FROM IPI1539
READING POSITION FROM IPI1540
READING POSITION FROM IPI1541
READING POSITION FROM IPI1542
READING POSITION FROM IPI1543
READING POSITION FROM IPI1544
READING POSITION FROM IPI1545
READING POSITION FROM IPI1546
READING POSITION FROM IPI1547
READING POSITION FROM IPI1548
READING POSITION FROM IPI1549
READING POSITION FROM IPI1550
READING POSITION FROM IPI1551
READING POSITION FROM IPI1552
READING POSITION FROM IPI1553
READING POSITION FROM IPI1554
READING POSITION FROM IPI1555
READING POSITION FROM IPI1556
READING POSITION FROM IPI1557
READING POSITION FROM IPI1558
READING POSITION FROM IPI1559
READING POSITION FROM IPI1560
READING POSITION FROM IPI1561
READING POSITION FROM IPI1562
READING POSITION FROM IPI1563
READING POSITION FROM IPI1564
READING POSITION FROM IPI1565
READING POSITION FROM IPI1566
READING POSITION FROM IPI1567
READING POSITION FROM IPI1568
READING POSITION FROM IPI1569
READING POSITION FROM IPI1570
READING POSITION FROM IPI1571
READING POSITION FROM IPI1572
READING POSITION FROM IPI1573
READING POSITION FROM IPI1574
READING POSITION FROM IPI1575
READING POSITION FROM IPI1576
READING POSITION FROM IPI1577
READING POSITION FROM IPI1578
READING POSITION FROM IPI1579
READING POSITION FROM IPI1580
READING POSITION FROM IPI1581
READING POSITION FROM IPI1582
READING POSITION FROM IPI1583
READING POSITION FROM IPI1584
READING POSITION FROM IPI1585
READING POSITION FROM IPI1586
READING POSITION FROM IPI1587
READING POSITION FROM IPI1588
READING POSITION FROM IPI1589
READING POSITION FROM IPI1590
READING POSITION FROM IPI1591
READING POSITION FROM IPI1592
READING POSITION FROM IPI1593
READING POSITION FROM IPI1594
READING POSITION FROM IPI1595
READING POSITION FROM IPI1596
READING POSITION FROM IPI1597
READING POSITION FROM IPI1598
READING POSITION FROM IPI1599
READING POSITION FROM IPI1600
    1600            0   -323.77414    37.405203   -286.36894   -790.58733 
READING POSITION FROM IPI1601
READING POSITION FROM IPI1602
READING POSITION FROM IPI1603
READING POSITION FROM IPI1604
READING POSITION FROM IPI1605
READING POSITION FROM IPI1606
READING POSITION FROM IPI1607
READING POSITION FROM IPI1608
READING POSITION FROM IPI1609
READING POSITION FROM IPI1610
READING POSITION FROM IPI1611
READING POSITION FROM IPI1612
READING POSITION FROM IPI1613
READING POSITION FROM IPI1614
READING POSITION FROM IPI1615
READING POSITION FROM IPI1616
READING POSITION FROM IPI1617
READING POSITION FROM IPI1618
READING POSITION FROM IPI1619
READING POSITION FROM IPI1620
READING POSITION FROM IPI1621
READING POSITION FROM IPI1622
READING POSITION FROM IPI1623
READING POSITION FROM IPI1624
READING POSITION FROM IPI1625
READING POSITION FROM IPI1626
READING POSITION FROM IPI1627
READING POSITION FROM IPI1628
READING POSITION FROM IPI1629
READING POSITION FROM IPI1630
READING POSITION FROM IPI1631
READING POSITION FROM IPI1632
READING POSITION FROM IPI1633
READING POSITION FROM IPI1634
READING POSITION FROM IPI1635
READING POSITION FROM IPI1636
READING POSITION FROM IPI1637
READING POSITION FROM IPI1638
READING POSITION FROM IPI1639
READING POSITION FROM IPI1640
READING POSITION FROM IPI1641
READING POSITION FROM IPI1642
READING POSITION FROM IPI1643
READING POSITION FROM IPI1644
READING POSITION FROM IPI1645
READING POSITION FROM IPI1646
READING POSITION FROM IPI1647
READING POSITION FROM IPI1648
READING POSITION FROM IPI1649
READING POSITION FROM IPI1650
READING POSITION FROM IPI1651
READING POSITION FROM IPI1652
READING POSITION FROM IPI1653
READING POSITION FROM IPI1654
READING POSITION FROM IPI1655
READING POSITION FROM IPI1656
READING POSITION FROM IPI1657
READING POSITION FROM IPI1658
READING POSITION FROM IPI1659
READING POSITION FROM IPI1660
READING POSITION FROM IPI1661
READING POSITION FROM IPI1662
READING POSITION FROM IPI1663
READING POSITION FROM IPI1664
READING POSITION FROM IPI1665
READING POSITION FROM IPI1666
READING POSITION FROM IPI1667
READING POSITION FROM IPI1668
READING POSITION FROM IPI1669
READING POSITION FROM IPI1670
READING POSITION FROM IPI1671
READING POSITION FROM IPI1672
READING POSITION FROM IPI1673
READING POSITION FROM IPI1674
READING POSITION FROM IPI1675
READING POSITION FROM IPI1676
READING POSITION FROM IPI1677
READING POSITION FROM IPI1678
READING POSITION FROM IPI1679
READING POSITION FROM IPI1680
READING POSITION FROM IPI1681
READING POSITION FROM IPI1682
READING POSITION FROM IPI1683
READING POSITION FROM IPI1684
READING POSITION FROM IPI1685
READING POSITION FROM IPI1686
READING POSITION FROM IPI1687
READING POSITION FROM IPI1688
READING POSITION FROM IPI1689
READING POSITION FROM IPI1690
READING POSITION FROM IPI1691
READING POSITION FROM IPI1692
READING POSITION FROM IPI1693
READING POSITION FROM IPI1694
READING POSITION FROM IPI1695
READING POSITION FROM IPI1696
READING POSITION FROM IPI1697
READING POSITION FROM IPI1698
READING POSITION FROM IPI1699
READING POSITION FROM IPI1700
    1700            0   -323.70105    37.202297   -286.49875   -667.79835 
READING POSITION FROM IPI1701
READING POSITION FROM IPI1702
READING POSITION FROM IPI1703
READING POSITION FROM IPI1704
READING POSITION FROM IPI1705
READING POSITION FROM IPI1706
READING POSITION FROM IPI1707
READING POSITION FROM IPI1708
READING POSITION FROM IPI1709
READING POSITION FROM IPI1710
READING POSITION FROM IPI1711
READING POSITION FROM IPI1712
READING POSITION FROM IPI1713
READING POSITION FROM IPI1714
READING POSITION FROM IPI1715
READING POSITION FROM IPI1716
READING POSITION FROM IPI1717
READING POSITION FROM IPI1718
READING POSITION FROM IPI1719
READING POSITION FROM IPI1720
READING POSITION FROM IPI1721
READING POSITION FROM IPI1722
READING POSITION FROM IPI1723
READING POSITION FROM IPI1724
READING POSITION FROM IPI1725
READING POSITION FROM IPI1726
READING POSITION FROM IPI1727
READING POSITION FROM IPI1728
READING POSITION FROM IPI1729
READING POSITION FROM IPI1730
READING POSITION FROM IPI1731
READING POSITION FROM IPI1732
READING POSITION FROM IPI1733
READING POSITION FROM IPI1734
READING POSITION FROM IPI1735
READING POSITION FROM IPI1736
READING POSITION FROM IPI1737
READING POSITION FROM IPI1738
READING POSITION FROM IPI1739
READING POSITION FROM IPI1740
READING POSITION FROM IPI1741
READING POSITION FROM IPI1742
READING POSITION FROM IPI1743
READING POSITION FROM IPI1744
READING POSITION FROM IPI1745
READING POSITION FROM IPI1746
READING POSITION FROM IPI1747
READING POSITION FROM IPI1748
READING POSITION FROM IPI1749
READING POSITION FROM IPI1750
READING POSITION FROM IPI1751
READING POSITION FROM IPI1752
READING POSITION FROM IPI1753
READING POSITION FROM IPI1754
READING POSITION FROM IPI1755
READING POSITION FROM IPI1756
READING POSITION FROM IPI1757
READING POSITION FROM IPI1758
READING POSITION FROM IPI1759
READING POSITION FROM IPI1760
READING POSITION FROM IPI1761
READING POSITION FROM IPI1762
READING POSITION FROM IPI1763
READING POSITION FROM IPI1764
READING POSITION FROM IPI1765
READING POSITION FROM IPI1766
READING POSITION FROM IPI1767
READING POSITION FROM IPI1768
READING POSITION FROM IPI1769
READING POSITION FROM IPI1770
READING POSITION FROM IPI1771
READING POSITION FROM IPI1772
READING POSITION FROM IPI1773
READING POSITION FROM IPI1774
READING POSITION FROM IPI1775
READING POSITION FROM IPI1776
READING POSITION FROM IPI1777
READING POSITION FROM IPI1778
READING POSITION FROM IPI1779
READING POSITION FROM IPI1780
READING POSITION FROM IPI1781
READING POSITION FROM IPI1782
READING POSITION FROM IPI1783
READING POSITION FROM IPI1784
READING POSITION FROM IPI1785
READING POSITION FROM IPI1786
READING POSITION FROM IPI1787
READING POSITION FROM IPI1788
READING POSITION FROM IPI1789
READING POSITION FROM IPI1790
READING POSITION FROM IPI1791
READING POSITION FROM IPI1792
READING POSITION FROM IPI1793
READING POSITION FROM IPI1794
READING POSITION FROM IPI1795
READING POSITION FROM IPI1796
READING POSITION FROM IPI1797
READING POSITION FROM IPI1798
READING POSITION FROM IPI1799
READING POSITION FROM IPI1800
    1800            0   -323.64571     37.02376   -286.62195   -606.68907 
READING POSITION FROM IPI1801
READING POSITION FROM IPI1802
READING POSITION FROM IPI1803
READING POSITION FROM IPI1804
READING POSITION FROM IPI1805
READING POSITION FROM IPI1806
READING POSITION FROM IPI1807
READING POSITION FROM IPI1808
READING POSITION FROM IPI1809
READING POSITION FROM IPI1810
READING POSITION FROM IPI1811
READING POSITION FROM IPI1812
READING POSITION FROM IPI1813
READING POSITION FROM IPI1814
READING POSITION FROM IPI1815
READING POSITION FROM IPI1816
READING POSITION FROM IPI1817
READING POSITION FROM IPI1818
READING POSITION FROM IPI1819
READING POSITION FROM IPI1820
READING POSITION FROM IPI1821
READING POSITION FROM IPI1822
READING POSITION FROM IPI1823
READING POSITION FROM IPI1824
READING POSITION FROM IPI1825
READING POSITION FROM IPI1826
READING POSITION FROM IPI1827
READING POSITION FROM IPI1828
READING POSITION FROM IPI1829
READING POSITION FROM IPI1830
READING POSITION FROM IPI1831
READING POSITION FROM IPI1832
READING POSITION FROM IPI1833
READING POSITION FROM IPI1834
READING POSITION FROM IPI1835
READING POSITION FROM IPI1836
READING POSITION FROM IPI1837
READING POSITION FROM IPI1838
READING POSITION FROM IPI1839
READING POSITION FROM IPI1840
READING POSITION FROM IPI1841
READING POSITION FROM IPI1842
READING POSITION FROM IPI1843
READING POSITION FROM IPI1844
READING POSITION FROM IPI1845
READING POSITION FROM IPI1846
READING POSITION FROM IPI1847
READING POSITION FROM IPI1848
READING POSITION FROM IPI1849
READING POSITION FROM IPI1850
READING POSITION FROM IPI1851
READING POSITION FROM IPI1852
READING POSITION FROM IPI1853
READING POSITION FROM IPI1854
READING POSITION FROM IPI1855
READING POSITION FROM IPI1856
READING POSITION FROM IPI1857
READING POSITION FROM IPI1858
READING POSITION FROM IPI1859
READING POSITION FROM IPI1860
READING POSITION FROM IPI1861
READING POSITION FROM IPI1862
READING POSITION FROM IPI1863
READING POSITION FROM IPI1864
READING POSITION FROM IPI1865
READING POSITION FROM IPI1866
READING POSITION FROM IPI1867
READING POSITION FROM IPI1868
READING POSITION FROM IPI1869
READING POSITION FROM IPI1870
READING POSITION FROM IPI1871
READING POSITION FROM IPI1872
READING POSITION FROM IPI1873
READING POSITION FROM IPI1874
READING POSITION FROM IPI1875
READING POSITION FROM IPI1876
READING POSITION FROM IPI1877
READING POSITION FROM IPI1878
READING POSITION FROM IPI1879
READING POSITION FROM IPI1880
READING POSITION FROM IPI1881
READING POSITION FROM IPI1882
READING POSITION FROM IPI1883
READING POSITION FROM IPI1884
READING POSITION FROM IPI1885
READING POSITION FROM IPI1886
READING POSITION FROM IPI1887
READING POSITION FROM IPI1888
READING POSITION FROM IPI1889
READING POSITION FROM IPI1890
READING POSITION FROM IPI1891
READING POSITION FROM IPI1892
READING POSITION FROM IPI1893
READING POSITION FROM IPI1894
READING POSITION FROM IPI1895
READING POSITION FROM IPI1896
READING POSITION FROM IPI1897
READING POSITION FROM IPI1898
READING POSITION FROM IPI1899
READING POSITION FROM IPI1900
    1900            0   -323.58294    36.844776   -286.73816   -500.58652 
READING POSITION FROM IPI1901
READING POSITION FROM IPI1902
READING POSITION FROM IPI1903
READING POSITION FROM IPI1904
READING POSITION FROM IPI1905
READING POSITION FROM IPI1906
READING POSITION FROM IPI1907
READING POSITION FROM IPI1908
READING POSITION FROM IPI1909
READING POSITION FROM IPI1910
READING POSITION FROM IPI1911
READING POSITION FROM IPI1912
READING POSITION FROM IPI1913
READING POSITION FROM IPI1914
READING POSITION FROM IPI1915
READING POSITION FROM IPI1916
READING POSITION FROM IPI1917
READING POSITION FROM IPI1918
READING POSITION FROM IPI1919
READING POSITION FROM IPI1920
READING POSITION FROM IPI1921
READING POSITION FROM IPI1922
READING POSITION FROM IPI1923
READING POSITION FROM IPI1924
READING POSITION FROM IPI1925
READING POSITION FROM IPI1926
READING POSITION FROM IPI1927
READING POSITION FROM IPI1928
READING POSITION FROM IPI1929
READING POSITION FROM IPI1930
READING POSITION FROM IPI1931
READING POSITION FROM IPI1932
READING POSITION FROM IPI1933
READING POSITION FROM IPI1934
READING POSITION FROM IPI1935
READING POSITION FROM IPI1936
READING POSITION FROM IPI1937
READING POSITION FROM IPI1938
READING POSITION FROM IPI1939
READING POSITION FROM IPI1940
READING POSITION FROM IPI1941
READING POSITION FROM IPI1942
READING POSITION FROM IPI1943
READING POSITION FROM IPI1944
READING POSITION FROM IPI1945
READING POSITION FROM IPI1946
READING POSITION FROM IPI1947
READING POSITION FROM IPI1948
READING POSITION FROM IPI1949
READING POSITION FROM IPI1950
READING POSITION FROM IPI1951
READING POSITION FROM IPI1952
READING POSITION FROM IPI1953
READING POSITION FROM IPI1954
READING POSITION FROM IPI1955
READING POSITION FROM IPI1956
READING POSITION FROM IPI1957
READING POSITION FROM IPI1958
READING POSITION FROM IPI1959
READING POSITION FROM IPI1960
READING POSITION FROM IPI1961
READING POSITION FROM IPI1962
READING POSITION FROM IPI1963
READING POSITION FROM IPI1964
READING POSITION FROM IPI1965
READING POSITION FROM IPI1966
READING POSITION FROM IPI1967
READING POSITION FROM IPI1968
READING POSITION FROM IPI1969
READING POSITION FROM IPI1970
READING POSITION FROM IPI1971
READING POSITION FROM IPI1972
READING POSITION FROM IPI1973
READING POSITION FROM IPI1974
READING POSITION FROM IPI1975
READING POSITION FROM IPI1976
READING POSITION FROM IPI1977
READING POSITION FROM IPI1978
READING POSITION FROM IPI1979
READING POSITION FROM IPI1980
READING POSITION FROM IPI1981
READING POSITION FROM IPI1982
READING POSITION FROM IPI1983
READING POSITION FROM IPI1984
READING POSITION FROM IPI1985
READING POSITION FROM IPI1986
READING POSITION FROM IPI1987
READING POSITION FROM IPI1988
READING POSITION FROM IPI1989
READING POSITION FROM IPI1990
READING POSITION FROM IPI1991
READING POSITION FROM IPI1992
READING POSITION FROM IPI1993
READING POSITION FROM IPI1994
READING POSITION FROM IPI1995
READING POSITION FROM IPI1996
READING POSITION FROM IPI1997
READING POSITION FROM IPI1998
READING POSITION FROM IPI1999
READING POSITION FROM IPI2000
    2000            0    -323.5238    36.676499    -286.8473    -399.3603 
READING POSITION FROM IPI2001
READING POSITION FROM IPI2002
READING POSITION FROM IPI2003
READING POSITION FROM IPI2004
READING POSITION FROM IPI2005
READING POSITION FROM IPI2006
READING POSITION FROM IPI2007
READING POSITION FROM IPI2008
READING POSITION FROM IPI2009
READING POSITION FROM IPI2010
READING POSITION FROM IPI2011
READING POSITION FROM IPI2012
READING POSITION FROM IPI2013
READING POSITION FROM IPI2014
READING POSITION FROM IPI2015
READING POSITION FROM IPI2016
READING POSITION FROM IPI2017
READING POSITION FROM IPI2018
READING POSITION FROM IPI2019
READING POSITION FROM IPI2020
READING POSITION FROM IPI2021
READING POSITION FROM IPI2022
READING POSITION FROM IPI2023
READING POSITION FROM IPI2024
READING POSITION FROM IPI2025
READING POSITION FROM IPI2026
READING POSITION FROM IPI2027
READING POSITION FROM IPI2028
READING POSITION FROM IPI2029
READING POSITION FROM IPI2030
READING POSITION FROM IPI2031
READING POSITION FROM IPI2032
READING POSITION FROM IPI2033
READING POSITION FROM IPI2034
READING POSITION FROM IPI2035
READING POSITION FROM IPI2036
READING POSITION FROM IPI2037
READING POSITION FROM IPI2038
READING POSITION FROM IPI2039
READING POSITION FROM IPI2040
READING POSITION FROM IPI2041
READING POSITION FROM IPI2042
READING POSITION FROM IPI2043
READING POSITION FROM IPI2044
READING POSITION FROM IPI2045
READING POSITION FROM IPI2046
READING POSITION FROM IPI2047
READING POSITION FROM IPI2048
READING POSITION FROM IPI2049
READING POSITION FROM IPI2050
READING POSITION FROM IPI2051
READING POSITION FROM IPI2052
READING POSITION FROM IPI2053
READING POSITION FROM IPI2054
READING POSITION FROM IPI2055
READING POSITION FROM IPI2056
READING POSITION FROM IPI2057
READING POSITION FROM IPI2058
READING POSITION FROM IPI2059
READING POSITION FROM IPI2060
READING POSITION FROM IPI2061
READING POSITION FROM IPI2062
READING POSITION FROM IPI2063
READING POSITION FROM IPI2064
READING POSITION FROM IPI2065
READING POSITION FROM IPI2066
READING POSITION FROM IPI2067
READING POSITION FROM IPI2068
READING POSITION FROM IPI2069
READING POSITION FROM IPI2070
READING POSITION FROM IPI2071
READING POSITION FROM IPI2072
READING POSITION FROM IPI2073
READING POSITION FROM IPI2074
READING POSITION FROM IPI2075
READING POSITION FROM IPI2076
READING POSITION FROM IPI2077
READING POSITION FROM IPI2078
READING POSITION FROM IPI2079
READING POSITION FROM IPI2080
READING POSITION FROM IPI2081
READING POSITION FROM IPI2082
READING POSITION FROM IPI2083
READING POSITION FROM IPI2084
READING POSITION FROM IPI2085
READING POSITION FROM IPI2086
READING POSITION FROM IPI2087
READING POSITION FROM IPI2088
READING POSITION FROM IPI2089
READING POSITION FROM IPI2090
READING POSITION FROM IPI2091
READING POSITION FROM IPI2092
READING POSITION FROM IPI2093
READING POSITION FROM IPI2094
READING POSITION FROM IPI2095
READING POSITION FROM IPI2096
READING POSITION FROM IPI2097
READING POSITION FROM IPI2098
READING POSITION FROM IPI2099
READING POSITION FROM IPI2100
    2100            0   -323.47014    36.519845    -286.9503   -305.69576 
READING POSITION FROM IPI2101
READING POSITION FROM IPI2102
READING POSITION FROM IPI2103
READING POSITION FROM IPI2104
READING POSITION FROM IPI2105
READING POSITION FROM IPI2106
READING POSITION FROM IPI2107
READING POSITION FROM IPI2108
READING POSITION FROM IPI2109
READING POSITION FROM IPI2110
READING POSITION FROM IPI2111
READING POSITION FROM IPI2112
READING POSITION FROM IPI2113
READING POSITION FROM IPI2114
READING POSITION FROM IPI2115
READING POSITION FROM IPI2116
READING POSITION FROM IPI2117
READING POSITION FROM IPI2118
READING POSITION FROM IPI2119
READING POSITION FROM IPI2120
READING POSITION FROM IPI2121
READING POSITION FROM IPI2122
READING POSITION FROM IPI2123
READING POSITION FROM IPI2124
READING POSITION FROM IPI2125
READING POSITION FROM IPI2126
READING POSITION FROM IPI2127
READING POSITION FROM IPI2128
READING POSITION FROM IPI2129
READING POSITION FROM IPI2130
READING POSITION FROM IPI2131
READING POSITION FROM IPI2132
READING POSITION FROM IPI2133
READING POSITION FROM IPI2134
READING POSITION FROM IPI2135
READING POSITION FROM IPI2136
READING POSITION FROM IPI2137
READING POSITION FROM IPI2138
READING POSITION FROM IPI2139
READING POSITION FROM IPI2140
READING POSITION FROM IPI2141
READING POSITION FROM IPI2142
READING POSITION FROM IPI2143
READING POSITION FROM IPI2144
READING POSITION FROM IPI2145
READING POSITION FROM IPI2146
READING POSITION FROM IPI2147
READING POSITION FROM IPI2148
READING POSITION FROM IPI2149
READING POSITION FROM IPI2150
READING POSITION FROM IPI2151
READING POSITION FROM IPI2152
READING POSITION FROM IPI2153
READING POSITION FROM IPI2154
READING POSITION FROM IPI2155
READING POSITION FROM IPI2156
READING POSITION FROM IPI2157
READING POSITION FROM IPI2158
READING POSITION FROM IPI2159
READING POSITION FROM IPI2160
READING POSITION FROM IPI2161
READING POSITION FROM IPI2162
READING POSITION FROM IPI2163
READING POSITION FROM IPI2164
READING POSITION FROM IPI2165
READING POSITION FROM IPI2166
READING POSITION FROM IPI2167
READING POSITION FROM IPI2168
READING POSITION FROM IPI2169
READING POSITION FROM IPI2170
READING POSITION FROM IPI2171
READING POSITION FROM IPI2172
READING POSITION FROM IPI2173
READING POSITION FROM IPI2174
READING POSITION FROM IPI2175
READING POSITION FROM IPI2176
READING POSITION FROM IPI2177
READING POSITION FROM IPI2178
READING POSITION FROM IPI2179
READING POSITION FROM IPI2180
READING POSITION FROM IPI2181
READING POSITION FROM IPI2182
READING POSITION FROM IPI2183
READING POSITION FROM IPI2184
READING POSITION FROM IPI2185
READING POSITION FROM IPI2186
READING POSITION FROM IPI2187
READING POSITION FROM IPI2188
READING POSITION FROM IPI2189
READING POSITION FROM IPI2190
READING POSITION FROM IPI2191
READING POSITION FROM IPI2192
READING POSITION FROM IPI2193
READING POSITION FROM IPI2194
READING POSITION FROM IPI2195
READING POSITION FROM IPI2196
READING POSITION FROM IPI2197
READING POSITION FROM IPI2198
READING POSITION FROM IPI2199
READING POSITION FROM IPI2200
    2200            0   -323.42177    36.374818   -287.04695   -221.36712 
READING POSITION FROM IPI2201
READING POSITION FROM IPI2202
READING POSITION FROM IPI2203
READING POSITION FROM IPI2204
READING POSITION FROM IPI2205
READING POSITION FROM IPI2206
READING POSITION FROM IPI2207
READING POSITION FROM IPI2208
READING POSITION FROM IPI2209
READING POSITION FROM IPI2210
READING POSITION FROM IPI2211
READING POSITION FROM IPI2212
READING POSITION FROM IPI2213
READING POSITION FROM IPI2214
READING POSITION FROM IPI2215
READING POSITION FROM IPI2216
READING POSITION FROM IPI2217
READING POSITION FROM IPI2218
READING POSITION FROM IPI2219
READING POSITION FROM IPI2220
READING POSITION FROM IPI2221
READING POSITION FROM IPI2222
READING POSITION FROM IPI2223
READING POSITION FROM IPI2224
READING POSITION FROM IPI2225
READING POSITION FROM IPI2226
READING POSITION FROM IPI2227
READING POSITION FROM IPI2228
READING POSITION FROM IPI2229
READING POSITION FROM IPI2230
READING POSITION FROM IPI2231
READING POSITION FROM IPI2232
READING POSITION FROM IPI2233
READING POSITION FROM IPI2234
READING POSITION FROM IPI2235
READING POSITION FROM IPI2236
READING POSITION FROM IPI2237
READING POSITION FROM IPI2238
READING POSITION FROM IPI2239
READING POSITION FROM IPI2240
READING POSITION FROM IPI2241
READING POSITION FROM IPI2242
READING POSITION FROM IPI2243
READING POSITION FROM IPI2244
READING POSITION FROM IPI2245
READING POSITION FROM IPI2246
READING POSITION FROM IPI2247
READING POSITION FROM IPI2248
READING POSITION FROM IPI2249
READING POSITION FROM IPI2250
READING POSITION FROM IPI2251
READING POSITION FROM IPI2252
READING POSITION FROM IPI2253
READING POSITION FROM IPI2254
READING POSITION FROM IPI2255
READING POSITION FROM IPI2256
READING POSITION FROM IPI2257
READING POSITION FROM IPI2258
READING POSITION FROM IPI2259
READING POSITION FROM IPI2260
READING POSITION FROM IPI2261
READING POSITION FROM IPI2262
READING POSITION FROM IPI2263
READING POSITION FROM IPI2264
READING POSITION FROM IPI2265
READING POSITION FROM IPI2266
READING POSITION FROM IPI2267
READING POSITION FROM IPI2268
READING POSITION FROM IPI2269
READING POSITION FROM IPI2270
READING POSITION FROM IPI2271
READING POSITION FROM IPI2272
READING POSITION FROM IPI2273
READING POSITION FROM IPI2274
READING POSITION FROM IPI2275
READING POSITION FROM IPI2276
READING POSITION FROM IPI2277
READING POSITION FROM IPI2278
READING POSITION FROM IPI2279
READING POSITION FROM IPI2280
READING POSITION FROM IPI2281
READING POSITION FROM IPI2282
READING POSITION FROM IPI2283
READING POSITION FROM IPI2284
READING POSITION FROM IPI2285
READING POSITION FROM IPI2286
READING POSITION FROM IPI2287
READING POSITION FROM IPI2288
READING POSITION FROM IPI2289
READING POSITION FROM IPI2290
READING POSITION FROM IPI2291
READING POSITION FROM IPI2292
READING POSITION FROM IPI2293
READING POSITION FROM IPI2294
READING POSITION FROM IPI2295
READING POSITION FROM IPI2296
READING POSITION FROM IPI2297
READING POSITION FROM IPI2298
READING POSITION FROM IPI2299
READING POSITION FROM IPI2300
    2300            0   -323.37963    36.239667   -287.13996   -144.75099 
READING POSITION FROM IPI2301
READING POSITION FROM IPI2302
READING POSITION FROM IPI2303
READING POSITION FROM IPI2304
READING POSITION FROM IPI2305
READING POSITION FROM IPI2306
READING POSITION FROM IPI2307
READING POSITION FROM IPI2308
READING POSITION FROM IPI2309
READING POSITION FROM IPI2310
READING POSITION FROM IPI2311
READING POSITION FROM IPI2312
READING POSITION FROM IPI2313
READING POSITION FROM IPI2314
READING POSITION FROM IPI2315
READING POSITION FROM IPI2316
READING POSITION FROM IPI2317
READING POSITION FROM IPI2318
READING POSITION FROM IPI2319
READING POSITION FROM IPI2320
READING POSITION FROM IPI2321
READING POSITION FROM IPI2322
READING POSITION FROM IPI2323
READING POSITION FROM IPI2324
READING POSITION FROM IPI2325
READING POSITION FROM IPI2326
READING POSITION FROM IPI2327
READING POSITION FROM IPI2328
READING POSITION FROM IPI2329
READING POSITION FROM IPI2330
READING POSITION FROM IPI2331
READING POSITION FROM IPI2332
READING POSITION FROM IPI2333
READING POSITION FROM IPI2334
READING POSITION FROM IPI2335
READING POSITION FROM IPI2336
READING POSITION FROM IPI2337
READING POSITION FROM IPI2338
READING POSITION FROM IPI2339
READING POSITION FROM IPI2340
READING POSITION FROM IPI2341
READING POSITION FROM IPI2342
READING POSITION FROM IPI2343
READING POSITION FROM IPI2344
READING POSITION FROM IPI2345
READING POSITION FROM IPI2346
READING POSITION FROM IPI2347
READING POSITION FROM IPI2348
READING POSITION FROM IPI2349
READING POSITION FROM IPI2350
READING POSITION FROM IPI2351
READING POSITION FROM IPI2352
READING POSITION FROM IPI2353
READING POSITION FROM IPI2354
READING POSITION FROM IPI2355
READING POSITION FROM IPI2356
READING POSITION FROM IPI2357
READING POSITION FROM IPI2358
READING POSITION FROM IPI2359
READING POSITION FROM IPI2360
READING POSITION FROM IPI2361
READING POSITION FROM IPI2362
READING POSITION FROM IPI2363
READING POSITION FROM IPI2364
READING POSITION FROM IPI2365
READING POSITION FROM IPI2366
READING POSITION FROM IPI2367
READING POSITION FROM IPI2368
READING POSITION FROM IPI2369
READING POSITION FROM IPI2370
READING POSITION FROM IPI2371
READING POSITION FROM IPI2372
READING POSITION FROM IPI2373
READING POSITION FROM IPI2374
READING POSITION FROM IPI2375
READING POSITION FROM IPI2376
READING POSITION FROM IPI2377
READING POSITION FROM IPI2378
READING POSITION FROM IPI2379
READING POSITION FROM IPI2380
READING POSITION FROM IPI2381
READING POSITION FROM IPI2382
READING POSITION FROM IPI2383
READING POSITION FROM IPI2384
READING POSITION FROM IPI2385
READING POSITION FROM IPI2386
READING POSITION FROM IPI2387
READING POSITION FROM IPI2388
READING POSITION FROM IPI2389
READING POSITION FROM IPI2390
READING POSITION FROM IPI2391
READING POSITION FROM IPI2392
READING POSITION FROM IPI2393
READING POSITION FROM IPI2394
READING POSITION FROM IPI2395
READING POSITION FROM IPI2396
READING POSITION FROM IPI2397
READING POSITION FROM IPI2398
READING POSITION FROM IPI2399
READING POSITION FROM IPI2400
    2400            0   -323.34156    36.114103   -287.22746   -75.634652 
READING POSITION FROM IPI2401
READING POSITION FROM IPI2402
READING POSITION FROM IPI2403
READING POSITION FROM IPI2404
READING POSITION FROM IPI2405
READING POSITION FROM IPI2406
READING POSITION FROM IPI2407
READING POSITION FROM IPI2408
READING POSITION FROM IPI2409
READING POSITION FROM IPI2410
READING POSITION FROM IPI2411
READING POSITION FROM IPI2412
READING POSITION FROM IPI2413
READING POSITION FROM IPI2414
READING POSITION FROM IPI2415
READING POSITION FROM IPI2416
READING POSITION FROM IPI2417
READING POSITION FROM IPI2418
READING POSITION FROM IPI2419
READING POSITION FROM IPI2420
READING POSITION FROM IPI2421
READING POSITION FROM IPI2422
READING POSITION FROM IPI2423
READING POSITION FROM IPI2424
READING POSITION FROM IPI2425
READING POSITION FROM IPI2426
READING POSITION FROM IPI2427
READING POSITION FROM IPI2428
READING POSITION FROM IPI2429
READING POSITION FROM IPI2430
READING POSITION FROM IPI2431
READING POSITION FROM IPI2432
READING POSITION FROM IPI2433
READING POSITION FROM IPI2434
READING POSITION FROM IPI2435
READING POSITION FROM IPI2436
READING POSITION FROM IPI2437
READING POSITION FROM IPI2438
READING POSITION FROM IPI2439
READING POSITION FROM IPI2440
READING POSITION FROM IPI2441
READING POSITION FROM IPI2442
READING POSITION FROM IPI2443
READING POSITION FROM IPI2444
READING POSITION FROM IPI2445
READING POSITION FROM IPI2446
READING POSITION FROM IPI2447
READING POSITION FROM IPI2448
READING POSITION FROM IPI2449
READING POSITION FROM IPI2450
READING POSITION FROM IPI2451
READING POSITION FROM IPI2452
READING POSITION FROM IPI2453
READING POSITION FROM IPI2454
READING POSITION FROM IPI2455
READING POSITION FROM IPI2456
READING POSITION FROM IPI2457
READING POSITION FROM IPI2458
READING POSITION FROM IPI2459
READING POSITION FROM IPI2460
READING POSITION FROM IPI2461
READING POSITION FROM IPI2462
READING POSITION FROM IPI2463
READING POSITION FROM IPI2464
READING POSITION FROM IPI2465
READING POSITION FROM IPI2466
READING POSITION FROM IPI2467
READING POSITION FROM IPI2468
READING POSITION FROM IPI2469
READING POSITION FROM IPI2470
READING POSITION FROM IPI2471
READING POSITION FROM IPI2472
READING POSITION FROM IPI2473
READING POSITION FROM IPI2474
READING POSITION FROM IPI2475
READING POSITION FROM IPI2476
READING POSITION FROM IPI2477
READING POSITION FROM IPI2478
READING POSITION FROM IPI2479
READING POSITION FROM IPI2480
READING POSITION FROM IPI2481
READING POSITION FROM IPI2482
READING POSITION FROM IPI2483
READING POSITION FROM IPI2484
READING POSITION FROM IPI2485
READING POSITION FROM IPI2486
READING POSITION FROM IPI2487
READING POSITION FROM IPI2488
READING POSITION FROM IPI2489
READING POSITION FROM IPI2490
READING POSITION FROM IPI2491
READING POSITION FROM IPI2492
READING POSITION FROM IPI2493
READING POSITION FROM IPI2494
READING POSITION FROM IPI2495
READING POSITION FROM IPI2496
READING POSITION FROM IPI2497
READING POSITION FROM IPI2498
READING POSITION FROM IPI2499
READING POSITION FROM IPI2500
    2500            0   -323.30852    35.997082   -287.31144   -14.814455 
READING POSITION FROM IPI2501
READING POSITION FROM IPI2502
READING POSITION FROM IPI2503
READING POSITION FROM IPI2504
READING POSITION FROM IPI2505
READING POSITION FROM IPI2506
READING POSITION FROM IPI2507
READING POSITION FROM IPI2508
READING POSITION FROM IPI2509
READING POSITION FROM IPI2510
READING POSITION FROM IPI2511
READING POSITION FROM IPI2512
READING POSITION FROM IPI2513
READING POSITION FROM IPI2514
READING POSITION FROM IPI2515
READING POSITION FROM IPI2516
READING POSITION FROM IPI2517
READING POSITION FROM IPI2518
READING POSITION FROM IPI2519
READING POSITION FROM IPI2520
READING POSITION FROM IPI2521
READING POSITION FROM IPI2522
READING POSITION FROM IPI2523
READING POSITION FROM IPI2524
READING POSITION FROM IPI2525
READING POSITION FROM IPI2526
READING POSITION FROM IPI2527
READING POSITION FROM IPI2528
READING POSITION FROM IPI2529
READING POSITION FROM IPI2530
READING POSITION FROM IPI2531
READING POSITION FROM IPI2532
READING POSITION FROM IPI2533
READING POSITION FROM IPI2534
READING POSITION FROM IPI2535
READING POSITION FROM IPI2536
READING POSITION FROM IPI2537
READING POSITION FROM IPI2538
READING POSITION FROM IPI2539
READING POSITION FROM IPI2540
READING POSITION FROM IPI2541
READING POSITION FROM IPI2542
READING POSITION FROM IPI2543
READING POSITION FROM IPI2544
READING POSITION FROM IPI2545
READING POSITION FROM IPI2546
READING POSITION FROM IPI2547
READING POSITION FROM IPI2548
READING POSITION FROM IPI2549
READING POSITION FROM IPI2550
READING POSITION FROM IPI2551
READING POSITION FROM IPI2552
READING POSITION FROM IPI2553
READING POSITION FROM IPI2554
READING POSITION FROM IPI2555
READING POSITION FROM IPI2556
READING POSITION FROM IPI2557
READING POSITION FROM IPI2558
READING POSITION FROM IPI2559
READING POSITION FROM IPI2560
READING POSITION FROM IPI2561
READING POSITION FROM IPI2562
READING POSITION FROM IPI2563
READING POSITION FROM IPI2564
READING POSITION FROM IPI2565
READING POSITION FROM IPI2566
READING POSITION FROM IPI2567
READING POSITION FROM IPI2568
READING POSITION FROM IPI2569
READING POSITION FROM IPI2570
READING POSITION FROM IPI2571
READING POSITION FROM IPI2572
READING POSITION FROM IPI2573
READING POSITION FROM IPI2574
READING POSITION FROM IPI2575
READING POSITION FROM IPI2576
READING POSITION FROM IPI2577
READING POSITION FROM IPI2578
READING POSITION FROM IPI2579
READING POSITION FROM IPI2580
READING POSITION FROM IPI2581
READING POSITION FROM IPI2582
READING POSITION FROM IPI2583
[...]
READING POSITION FROM IPI79989
READING POSITION FROM IPI79990
READING POSITION FROM IPI79991
READING POSITION FROM IPI79992
READING POSITION FROM IPI79993
READING POSITION FROM IPI79994
READING POSITION FROM IPI79995
READING POSITION FROM IPI79996
READING POSITION FROM IPI79997
READING POSITION FROM IPI79998
READING POSITION FROM IPI79999
READING POSITION FROM IPI80000
   80000            0    -323.2999    33.556185   -289.74372    973.83403 
READING POSITION FROM IPI80001
READING POSITION FROM IPI80002
READING POSITION FROM IPI80003
READING POSITION FROM IPI80004
READING POSITION FROM IPI80005
READING POSITION FROM IPI80006
READING POSITION FROM IPI80007
READING POSITION FROM IPI80008
READING POSITION FROM IPI80009
READING POSITION FROM IPI80010
READING POSITION FROM IPI80011
READING POSITION FROM IPI80012
READING POSITION FROM IPI80013
READING POSITION FROM IPI80014
READING POSITION FROM IPI80015
READING POSITION FROM IPI80016
READING POSITION FROM IPI80017
READING POSITION FROM IPI80018
READING POSITION FROM IPI80019
READING POSITION FROM IPI80020
READING POSITION FROM IPI80021
READING POSITION FROM IPI80022
READING POSITION FROM IPI80023
READING POSITION FROM IPI80024
READING POSITION FROM IPI80025
READING POSITION FROM IPI80026
READING POSITION FROM IPI80027
READING POSITION FROM IPI80028
READING POSITION FROM IPI80029
READING POSITION FROM IPI80030
READING POSITION FROM IPI80031
READING POSITION FROM IPI80032
READING POSITION FROM IPI80033
READING POSITION FROM IPI80034
READING POSITION FROM IPI80035
READING POSITION FROM IPI80036
READING POSITION FROM IPI80037
READING POSITION FROM IPI80038
READING POSITION FROM IPI80039
READING POSITION FROM IPI80040
READING POSITION FROM IPI80041
READING POSITION FROM IPI80042
READING POSITION FROM IPI80043
READING POSITION FROM IPI80044
READING POSITION FROM IPI80045
READING POSITION FROM IPI80046
READING POSITION FROM IPI80047
READING POSITION FROM IPI80048
READING POSITION FROM IPI80049
READING POSITION FROM IPI80050
READING POSITION FROM IPI80051
READING POSITION FROM IPI80052
READING POSITION FROM IPI80053
READING POSITION FROM IPI80054
READING POSITION FROM IPI80055
READING POSITION FROM IPI80056
READING POSITION FROM IPI80057
READING POSITION FROM IPI80058
READING POSITION FROM IPI80059
READING POSITION FROM IPI80060
READING POSITION FROM IPI80061
READING POSITION FROM IPI80062
READING POSITION FROM IPI80063
READING POSITION FROM IPI80064
READING POSITION FROM IPI80065
READING POSITION FROM IPI80066
READING POSITION FROM IPI80067
READING POSITION FROM IPI80068
READING POSITION FROM IPI80069
READING POSITION FROM IPI80070
READING POSITION FROM IPI80071
READING POSITION FROM IPI80072
READING POSITION FROM IPI80073
READING POSITION FROM IPI80074
READING POSITION FROM IPI80075
READING POSITION FROM IPI80076
READING POSITION FROM IPI80077
READING POSITION FROM IPI80078
READING POSITION FROM IPI80079
READING POSITION FROM IPI80080
READING POSITION FROM IPI80081
READING POSITION FROM IPI80082
READING POSITION FROM IPI80083
READING POSITION FROM IPI80084
READING POSITION FROM IPI80085
READING POSITION FROM IPI80086
READING POSITION FROM IPI80087
READING POSITION FROM IPI80088
READING POSITION FROM IPI80089
READING POSITION FROM IPI80090
READING POSITION FROM IPI80091
READING POSITION FROM IPI80092
READING POSITION FROM IPI80093
READING POSITION FROM IPI80094
READING POSITION FROM IPI80095
READING POSITION FROM IPI80096
READING POSITION FROM IPI80097
READING POSITION FROM IPI80098
READING POSITION FROM IPI80099
READING POSITION FROM IPI80100
   80100            0    -323.2999    33.556185   -289.74372    973.83415 
READING POSITION FROM IPI80101
READING POSITION FROM IPI80102
READING POSITION FROM IPI80103
READING POSITION FROM IPI80104
READING POSITION FROM IPI80105
READING POSITION FROM IPI80106
READING POSITION FROM IPI80107
READING POSITION FROM IPI80108
READING POSITION FROM IPI80109
READING POSITION FROM IPI80110
READING POSITION FROM IPI80111
READING POSITION FROM IPI80112
READING POSITION FROM IPI80113
READING POSITION FROM IPI80114
READING POSITION FROM IPI80115
READING POSITION FROM IPI80116
READING POSITION FROM IPI80117
READING POSITION FROM IPI80118
READING POSITION FROM IPI80119
READING POSITION FROM IPI80120
READING POSITION FROM IPI80121
READING POSITION FROM IPI80122
READING POSITION FROM IPI80123
READING POSITION FROM IPI80124
READING POSITION FROM IPI80125
READING POSITION FROM IPI80126
READING POSITION FROM IPI80127
READING POSITION FROM IPI80128
READING POSITION FROM IPI80129
READING POSITION FROM IPI80130
READING POSITION FROM IPI80131
READING POSITION FROM IPI80132
READING POSITION FROM IPI80133
READING POSITION FROM IPI80134
READING POSITION FROM IPI80135
READING POSITION FROM IPI80136
READING POSITION FROM IPI80137
READING POSITION FROM IPI80138
READING POSITION FROM IPI80139
READING POSITION FROM IPI80140
READING POSITION FROM IPI80141
READING POSITION FROM IPI80142
READING POSITION FROM IPI80143
READING POSITION FROM IPI80144
READING POSITION FROM IPI80145
READING POSITION FROM IPI80146
READING POSITION FROM IPI80147
READING POSITION FROM IPI80148
READING POSITION FROM IPI80149
READING POSITION FROM IPI80150
READING POSITION FROM IPI80151
READING POSITION FROM IPI80152
READING POSITION FROM IPI80153
READING POSITION FROM IPI80154
READING POSITION FROM IPI80155
READING POSITION FROM IPI80156
READING POSITION FROM IPI80157
READING POSITION FROM IPI80158
READING POSITION FROM IPI80159
READING POSITION FROM IPI80160
READING POSITION FROM IPI80161
READING POSITION FROM IPI80162
READING POSITION FROM IPI80163
READING POSITION FROM IPI80164
READING POSITION FROM IPI80165
READING POSITION FROM IPI80166
READING POSITION FROM IPI80167
READING POSITION FROM IPI80168
READING POSITION FROM IPI80169
READING POSITION FROM IPI80170
READING POSITION FROM IPI80171
READING POSITION FROM IPI80172
READING POSITION FROM IPI80173
READING POSITION FROM IPI80174
READING POSITION FROM IPI80175
READING POSITION FROM IPI80176
READING POSITION FROM IPI80177
READING POSITION FROM IPI80178
READING POSITION FROM IPI80179
READING POSITION FROM IPI80180
READING POSITION FROM IPI80181
READING POSITION FROM IPI80182
READING POSITION FROM IPI80183
READING POSITION FROM IPI80184
READING POSITION FROM IPI80185
READING POSITION FROM IPI80186
READING POSITION FROM IPI80187
READING POSITION FROM IPI80188
READING POSITION FROM IPI80189
READING POSITION FROM IPI80190
READING POSITION FROM IPI80191
READING POSITION FROM IPI80192
READING POSITION FROM IPI80193
READING POSITION FROM IPI80194
READING POSITION FROM IPI80195
READING POSITION FROM IPI80196
READING POSITION FROM IPI80197
READING POSITION FROM IPI80198
READING POSITION FROM IPI80199
READING POSITION FROM IPI80200
   80200            0    -323.2999    33.556185   -289.74372    973.83425 
READING POSITION FROM IPI80201
READING POSITION FROM IPI80202
READING POSITION FROM IPI80203
READING POSITION FROM IPI80204
READING POSITION FROM IPI80205
READING POSITION FROM IPI80206
READING POSITION FROM IPI80207
READING POSITION FROM IPI80208
READING POSITION FROM IPI80209
READING POSITION FROM IPI80210
READING POSITION FROM IPI80211
READING POSITION FROM IPI80212
READING POSITION FROM IPI80213
READING POSITION FROM IPI80214
READING POSITION FROM IPI80215
READING POSITION FROM IPI80216
READING POSITION FROM IPI80217
READING POSITION FROM IPI80218
READING POSITION FROM IPI80219
READING POSITION FROM IPI80220
READING POSITION FROM IPI80221
READING POSITION FROM IPI80222
READING POSITION FROM IPI80223
READING POSITION FROM IPI80224
READING POSITION FROM IPI80225
READING POSITION FROM IPI80226
READING POSITION FROM IPI80227
READING POSITION FROM IPI80228
READING POSITION FROM IPI80229
READING POSITION FROM IPI80230
READING POSITION FROM IPI80231
READING POSITION FROM IPI80232
READING POSITION FROM IPI80233
READING POSITION FROM IPI80234
READING POSITION FROM IPI80235
READING POSITION FROM IPI80236
READING POSITION FROM IPI80237
READING POSITION FROM IPI80238
READING POSITION FROM IPI80239
READING POSITION FROM IPI80240
READING POSITION FROM IPI80241
READING POSITION FROM IPI80242
READING POSITION FROM IPI80243
READING POSITION FROM IPI80244
READING POSITION FROM IPI80245
READING POSITION FROM IPI80246
READING POSITION FROM IPI80247
READING POSITION FROM IPI80248
READING POSITION FROM IPI80249
READING POSITION FROM IPI80250
READING POSITION FROM IPI80251
READING POSITION FROM IPI80252
READING POSITION FROM IPI80253
READING POSITION FROM IPI80254
READING POSITION FROM IPI80255
READING POSITION FROM IPI80256
READING POSITION FROM IPI80257
READING POSITION FROM IPI80258
READING POSITION FROM IPI80259
READING POSITION FROM IPI80260
READING POSITION FROM IPI80261
READING POSITION FROM IPI80262
READING POSITION FROM IPI80263
READING POSITION FROM IPI80264
READING POSITION FROM IPI80265
READING POSITION FROM IPI80266
READING POSITION FROM IPI80267
READING POSITION FROM IPI80268
READING POSITION FROM IPI80269
READING POSITION FROM IPI80270
READING POSITION FROM IPI80271
READING POSITION FROM IPI80272
READING POSITION FROM IPI80273
READING POSITION FROM IPI80274
READING POSITION FROM IPI80275
READING POSITION FROM IPI80276
READING POSITION FROM IPI80277
READING POSITION FROM IPI80278
READING POSITION FROM IPI80279
READING POSITION FROM IPI80280
READING POSITION FROM IPI80281
READING POSITION FROM IPI80282
READING POSITION FROM IPI80283
READING POSITION FROM IPI80284
READING POSITION FROM IPI80285
READING POSITION FROM IPI80286
READING POSITION FROM IPI80287
READING POSITION FROM IPI80288
READING POSITION FROM IPI80289
READING POSITION FROM IPI80290
READING POSITION FROM IPI80291
READING POSITION FROM IPI80292
READING POSITION FROM IPI80293
READING POSITION FROM IPI80294
READING POSITION FROM IPI80295
READING POSITION FROM IPI80296
READING POSITION FROM IPI80297
READING POSITION FROM IPI80298
READING POSITION FROM IPI80299
READING POSITION FROM IPI80300
   80300            0    -323.2999    33.556184   -289.74372    973.83466 
READING POSITION FROM IPI80301
READING POSITION FROM IPI80302
READING POSITION FROM IPI80303
READING POSITION FROM IPI80304
READING POSITION FROM IPI80305
READING POSITION FROM IPI80306
READING POSITION FROM IPI80307
READING POSITION FROM IPI80308
READING POSITION FROM IPI80309
READING POSITION FROM IPI80310
READING POSITION FROM IPI80311
READING POSITION FROM IPI80312
READING POSITION FROM IPI80313
READING POSITION FROM IPI80314
READING POSITION FROM IPI80315
READING POSITION FROM IPI80316
READING POSITION FROM IPI80317
READING POSITION FROM IPI80318
READING POSITION FROM IPI80319
READING POSITION FROM IPI80320
READING POSITION FROM IPI80321
READING POSITION FROM IPI80322
READING POSITION FROM IPI80323
READING POSITION FROM IPI80324
READING POSITION FROM IPI80325
READING POSITION FROM IPI80326
READING POSITION FROM IPI80327
READING POSITION FROM IPI80328
READING POSITION FROM IPI80329
READING POSITION FROM IPI80330
READING POSITION FROM IPI80331
READING POSITION FROM IPI80332
READING POSITION FROM IPI80333
READING POSITION FROM IPI80334
READING POSITION FROM IPI80335
READING POSITION FROM IPI80336
READING POSITION FROM IPI80337
READING POSITION FROM IPI80338
READING POSITION FROM IPI80339
READING POSITION FROM IPI80340
READING POSITION FROM IPI80341
READING POSITION FROM IPI80342
READING POSITION FROM IPI80343
READING POSITION FROM IPI80344
READING POSITION FROM IPI80345
READING POSITION FROM IPI80346
READING POSITION FROM IPI80347
READING POSITION FROM IPI80348
READING POSITION FROM IPI80349
READING POSITION FROM IPI80350
READING POSITION FROM IPI80351
READING POSITION FROM IPI80352
READING POSITION FROM IPI80353
READING POSITION FROM IPI80354
READING POSITION FROM IPI80355
READING POSITION FROM IPI80356
READING POSITION FROM IPI80357
READING POSITION FROM IPI80358
READING POSITION FROM IPI80359
READING POSITION FROM IPI80360
READING POSITION FROM IPI80361
READING POSITION FROM IPI80362
READING POSITION FROM IPI80363
READING POSITION FROM IPI80364
READING POSITION FROM IPI80365
READING POSITION FROM IPI80366
READING POSITION FROM IPI80367
READING POSITION FROM IPI80368
READING POSITION FROM IPI80369
READING POSITION FROM IPI80370
READING POSITION FROM IPI80371
READING POSITION FROM IPI80372
READING POSITION FROM IPI80373
READING POSITION FROM IPI80374
READING POSITION FROM IPI80375
READING POSITION FROM IPI80376
READING POSITION FROM IPI80377
READING POSITION FROM IPI80378
READING POSITION FROM IPI80379
READING POSITION FROM IPI80380
READING POSITION FROM IPI80381
READING POSITION FROM IPI80382
READING POSITION FROM IPI80383
READING POSITION FROM IPI80384
READING POSITION FROM IPI80385
READING POSITION FROM IPI80386
READING POSITION FROM IPI80387
READING POSITION FROM IPI80388
READING POSITION FROM IPI80389
READING POSITION FROM IPI80390
READING POSITION FROM IPI80391
READING POSITION FROM IPI80392
READING POSITION FROM IPI80393
READING POSITION FROM IPI80394
READING POSITION FROM IPI80395
READING POSITION FROM IPI80396
READING POSITION FROM IPI80397
READING POSITION FROM IPI80398
READING POSITION FROM IPI80399
READING POSITION FROM IPI80400
   80400            0    -323.2999    33.556184   -289.74372    973.83483 
READING POSITION FROM IPI80401
READING POSITION FROM IPI80402
READING POSITION FROM IPI80403
READING POSITION FROM IPI80404
READING POSITION FROM IPI80405
READING POSITION FROM IPI80406
READING POSITION FROM IPI80407
READING POSITION FROM IPI80408
READING POSITION FROM IPI80409
READING POSITION FROM IPI80410
READING POSITION FROM IPI80411
READING POSITION FROM IPI80412
READING POSITION FROM IPI80413
READING POSITION FROM IPI80414
READING POSITION FROM IPI80415
READING POSITION FROM IPI80416
READING POSITION FROM IPI80417
READING POSITION FROM IPI80418
READING POSITION FROM IPI80419
READING POSITION FROM IPI80420
READING POSITION FROM IPI80421
READING POSITION FROM IPI80422
READING POSITION FROM IPI80423
READING POSITION FROM IPI80424
READING POSITION FROM IPI80425
READING POSITION FROM IPI80426
READING POSITION FROM IPI80427
READING POSITION FROM IPI80428
READING POSITION FROM IPI80429
READING POSITION FROM IPI80430
READING POSITION FROM IPI80431
READING POSITION FROM IPI80432
READING POSITION FROM IPI80433
READING POSITION FROM IPI80434
READING POSITION FROM IPI80435
READING POSITION FROM IPI80436
READING POSITION FROM IPI80437
READING POSITION FROM IPI80438
READING POSITION FROM IPI80439
READING POSITION FROM IPI80440
READING POSITION FROM IPI80441
READING POSITION FROM IPI80442
READING POSITION FROM IPI80443
READING POSITION FROM IPI80444
READING POSITION FROM IPI80445
READING POSITION FROM IPI80446
READING POSITION FROM IPI80447
READING POSITION FROM IPI80448
READING POSITION FROM IPI80449
READING POSITION FROM IPI80450
READING POSITION FROM IPI80451
READING POSITION FROM IPI80452
READING POSITION FROM IPI80453
READING POSITION FROM IPI80454
READING POSITION FROM IPI80455
READING POSITION FROM IPI80456
READING POSITION FROM IPI80457
READING POSITION FROM IPI80458
READING POSITION FROM IPI80459
READING POSITION FROM IPI80460
READING POSITION FROM IPI80461
READING POSITION FROM IPI80462
READING POSITION FROM IPI80463
READING POSITION FROM IPI80464
READING POSITION FROM IPI80465
READING POSITION FROM IPI80466
READING POSITION FROM IPI80467
READING POSITION FROM IPI80468
READING POSITION FROM IPI80469
READING POSITION FROM IPI80470
READING POSITION FROM IPI80471
READING POSITION FROM IPI80472
READING POSITION FROM IPI80473
READING POSITION FROM IPI80474
READING POSITION FROM IPI80475
READING POSITION FROM IPI80476
READING POSITION FROM IPI80477
READING POSITION FROM IPI80478
READING POSITION FROM IPI80479
READING POSITION FROM IPI80480
READING POSITION FROM IPI80481
READING POSITION FROM IPI80482
READING POSITION FROM IPI80483
READING POSITION FROM IPI80484
READING POSITION FROM IPI80485
READING POSITION FROM IPI80486
READING POSITION FROM IPI80487
READING POSITION FROM IPI80488
READING POSITION FROM IPI80489
READING POSITION FROM IPI80490
READING POSITION FROM IPI80491
READING POSITION FROM IPI80492
READING POSITION FROM IPI80493
READING POSITION FROM IPI80494
READING POSITION FROM IPI80495
READING POSITION FROM IPI80496
READING POSITION FROM IPI80497
READING POSITION FROM IPI80498
READING POSITION FROM IPI80499
READING POSITION FROM IPI80500
   80500            0    -323.2999    33.556184   -289.74372    973.83508 
READING POSITION FROM IPI80501
READING POSITION FROM IPI80502
READING POSITION FROM IPI80503
READING POSITION FROM IPI80504
READING POSITION FROM IPI80505
READING POSITION FROM IPI80506
READING POSITION FROM IPI80507
READING POSITION FROM IPI80508
READING POSITION FROM IPI80509
READING POSITION FROM IPI80510
READING POSITION FROM IPI80511
READING POSITION FROM IPI80512
READING POSITION FROM IPI80513
READING POSITION FROM IPI80514
READING POSITION FROM IPI80515
READING POSITION FROM IPI80516
READING POSITION FROM IPI80517
READING POSITION FROM IPI80518
READING POSITION FROM IPI80519
READING POSITION FROM IPI80520
READING POSITION FROM IPI80521
READING POSITION FROM IPI80522
READING POSITION FROM IPI80523
READING POSITION FROM IPI80524
READING POSITION FROM IPI80525
READING POSITION FROM IPI80526
READING POSITION FROM IPI80527
READING POSITION FROM IPI80528
READING POSITION FROM IPI80529
READING POSITION FROM IPI80530
READING POSITION FROM IPI80531
READING POSITION FROM IPI80532
READING POSITION FROM IPI80533
READING POSITION FROM IPI80534
READING POSITION FROM IPI80535
READING POSITION FROM IPI80536
READING POSITION FROM IPI80537
READING POSITION FROM IPI80538
READING POSITION FROM IPI80539
READING POSITION FROM IPI80540
READING POSITION FROM IPI80541
READING POSITION FROM IPI80542
READING POSITION FROM IPI80543
READING POSITION FROM IPI80544
READING POSITION FROM IPI80545
READING POSITION FROM IPI80546
READING POSITION FROM IPI80547
READING POSITION FROM IPI80548
READING POSITION FROM IPI80549
READING POSITION FROM IPI80550
READING POSITION FROM IPI80551
READING POSITION FROM IPI80552
READING POSITION FROM IPI80553
READING POSITION FROM IPI80554
READING POSITION FROM IPI80555
READING POSITION FROM IPI80556
READING POSITION FROM IPI80557
READING POSITION FROM IPI80558
READING POSITION FROM IPI80559
READING POSITION FROM IPI80560
READING POSITION FROM IPI80561
READING POSITION FROM IPI80562
READING POSITION FROM IPI80563
READING POSITION FROM IPI80564
READING POSITION FROM IPI80565
READING POSITION FROM IPI80566
READING POSITION FROM IPI80567
READING POSITION FROM IPI80568
READING POSITION FROM IPI80569
READING POSITION FROM IPI80570
READING POSITION FROM IPI80571
READING POSITION FROM IPI80572
READING POSITION FROM IPI80573
READING POSITION FROM IPI80574
READING POSITION FROM IPI80575
READING POSITION FROM IPI80576
READING POSITION FROM IPI80577
READING POSITION FROM IPI80578
READING POSITION FROM IPI80579
READING POSITION FROM IPI80580
READING POSITION FROM IPI80581
READING POSITION FROM IPI80582
READING POSITION FROM IPI80583
READING POSITION FROM IPI80584
READING POSITION FROM IPI80585
READING POSITION FROM IPI80586
READING POSITION FROM IPI80587
READING POSITION FROM IPI80588
READING POSITION FROM IPI80589
READING POSITION FROM IPI80590
READING POSITION FROM IPI80591
READING POSITION FROM IPI80592
READING POSITION FROM IPI80593
READING POSITION FROM IPI80594
READING POSITION FROM IPI80595
READING POSITION FROM IPI80596
READING POSITION FROM IPI80597
READING POSITION FROM IPI80598
READING POSITION FROM IPI80599
READING POSITION FROM IPI80600
   80600            0    -323.2999    33.556184   -289.74372    973.83559 
READING POSITION FROM IPI80601
READING POSITION FROM IPI80602
READING POSITION FROM IPI80603
READING POSITION FROM IPI80604
READING POSITION FROM IPI80605
READING POSITION FROM IPI80606
READING POSITION FROM IPI80607
READING POSITION FROM IPI80608
READING POSITION FROM IPI80609
READING POSITION FROM IPI80610
READING POSITION FROM IPI80611
READING POSITION FROM IPI80612
READING POSITION FROM IPI80613
ERROR on proc 0: Got EXIT message from i-PI. Now leaving! (../fix_ipi.cpp:289)
