LAMMPS (17 Nov 2016)
Reading data file ...
  orthogonal box = (-17.6165 -17.6165 -17.6165) to (17.6165 17.6165 17.6165)
  1 by 1 by 1 MPI processor grid
  reading atoms ...
  3 atoms
  scanning bonds ...
  2 = max bonds/atom
  scanning angles ...
  1 = max angles/atom
  reading bonds ...
  2 bonds
  reading angles ...
  1 angles
Finding 1-2 1-3 1-4 neighbors ...
 Special bond factors lj:   0          0          0         
 Special bond factors coul: 0          0          0         
  2 = max # of 1-2 neighbors
  1 = max # of 1-3 neighbors
  1 = max # of 1-4 neighbors
  2 = max # of special neighbors
PPPM initialization ...
  extracting TIP4P info from pair style
WARNING: Using 12-bit tables for long-range coulomb (../kspace.cpp:317)
  G vector (1/distance) = 0.135536
  grid = 8 8 8
  stencil order = 5
  estimated absolute RMS force accuracy = 1.39537e-05
  estimated relative force accuracy = 4.98295e-05
  using double precision FFTs
  3d grid and FFT values/proc = 2197 512
Neighbor list info ...
  1 neighbor list requests
  update every 1 steps, delay 0 steps, check yes
  max neighbors/atom: 2000, page size: 100000
  master list distance cutoff = 19.5631
  ghost atom cutoff = 19.5631
  binsize = 9.78157, bins = 4 4 4
Setting up Verlet run ...
  Unit style    : electron
  Current step  : 0
  Time step     : 0.00025
Memory usage per processor = 6.62711 Mbytes
Step Temp E_pair E_mol TotEng Press 
       0            0 -3.2481319e-05 0.0050815444 0.0050490631     -1116447 
READING POSITION FROM IPI1
READING POSITION FROM IPI2
READING POSITION FROM IPI3
READING POSITION FROM IPI4
READING POSITION FROM IPI5
READING POSITION FROM IPI6
READING POSITION FROM IPI7
READING POSITION FROM IPI8
READING POSITION FROM IPI9
READING POSITION FROM IPI10
READING POSITION FROM IPI11
ERROR on proc 0: Got EXIT message from i-PI. Now leaving! (../fix_ipi.cpp:289)
