LAMMPS (17 Nov 2016)
Reading data file ...
  orthogonal box = (-17.6165 -17.6165 -17.6165) to (17.6165 17.6165 17.6165)
  1 by 1 by 1 MPI processor grid
  reading atoms ...
  3 atoms
  scanning bonds ...
  2 = max bonds/atom
  scanning angles ...
  1 = max angles/atom
  reading bonds ...
  2 bonds
  reading angles ...
  1 angles
Finding 1-2 1-3 1-4 neighbors ...
 Special bond factors lj:   0          0          0         
 Special bond factors coul: 0          0          0         
  2 = max # of 1-2 neighbors
  1 = max # of 1-3 neighbors
  1 = max # of 1-4 neighbors
  2 = max # of special neighbors
PPPM initialization ...
  extracting TIP4P info from pair style
WARNING: Using 12-bit tables for long-range coulomb (../kspace.cpp:317)
  G vector (1/distance) = 0.135536
  grid = 8 8 8
  stencil order = 5
  estimated absolute RMS force accuracy = 1.39537e-05
  estimated relative force accuracy = 4.98295e-05
  using double precision FFTs
  3d grid and FFT values/proc = 2197 512
Neighbor list info ...
  1 neighbor list requests
  update every 1 steps, delay 0 steps, check yes
  max neighbors/atom: 2000, page size: 100000
  master list distance cutoff = 19.5631
  ghost atom cutoff = 19.5631
  binsize = 9.78157, bins = 4 4 4
Setting up Verlet run ...
  Unit style    : electron
  Current step  : 0
  Time step     : 0.00025
Memory usage per processor = 6.62711 Mbytes
Step Temp E_pair E_mol TotEng Press 
       0            0 -3.2481319e-05 0.0050815444 0.0050490631     -1116447 
READING POSITION FROM IPI1
READING POSITION FROM IPI2
READING POSITION FROM IPI3
READING POSITION FROM IPI4
READING POSITION FROM IPI5
READING POSITION FROM IPI6
READING POSITION FROM IPI7
READING POSITION FROM IPI8
READING POSITION FROM IPI9
READING POSITION FROM IPI10
READING POSITION FROM IPI11
READING POSITION FROM IPI12
READING POSITION FROM IPI13
READING POSITION FROM IPI14
READING POSITION FROM IPI15
READING POSITION FROM IPI16
READING POSITION FROM IPI17
READING POSITION FROM IPI18
READING POSITION FROM IPI19
READING POSITION FROM IPI20
READING POSITION FROM IPI21
READING POSITION FROM IPI22
READING POSITION FROM IPI23
READING POSITION FROM IPI24
READING POSITION FROM IPI25
READING POSITION FROM IPI26
READING POSITION FROM IPI27
READING POSITION FROM IPI28
READING POSITION FROM IPI29
READING POSITION FROM IPI30
READING POSITION FROM IPI31
READING POSITION FROM IPI32
READING POSITION FROM IPI33
READING POSITION FROM IPI34
READING POSITION FROM IPI35
READING POSITION FROM IPI36
READING POSITION FROM IPI37
READING POSITION FROM IPI38
READING POSITION FROM IPI39
READING POSITION FROM IPI40
READING POSITION FROM IPI41
READING POSITION FROM IPI42
READING POSITION FROM IPI43
READING POSITION FROM IPI44
READING POSITION FROM IPI45
READING POSITION FROM IPI46
READING POSITION FROM IPI47
READING POSITION FROM IPI48
READING POSITION FROM IPI49
READING POSITION FROM IPI50
READING POSITION FROM IPI51
READING POSITION FROM IPI52
READING POSITION FROM IPI53
READING POSITION FROM IPI54
READING POSITION FROM IPI55
READING POSITION FROM IPI56
READING POSITION FROM IPI57
READING POSITION FROM IPI58
READING POSITION FROM IPI59
READING POSITION FROM IPI60
READING POSITION FROM IPI61
READING POSITION FROM IPI62
READING POSITION FROM IPI63
READING POSITION FROM IPI64
READING POSITION FROM IPI65
READING POSITION FROM IPI66
READING POSITION FROM IPI67
READING POSITION FROM IPI68
READING POSITION FROM IPI69
READING POSITION FROM IPI70
READING POSITION FROM IPI71
READING POSITION FROM IPI72
READING POSITION FROM IPI73
READING POSITION FROM IPI74
READING POSITION FROM IPI75
READING POSITION FROM IPI76
READING POSITION FROM IPI77
READING POSITION FROM IPI78
READING POSITION FROM IPI79
READING POSITION FROM IPI80
READING POSITION FROM IPI81
READING POSITION FROM IPI82
READING POSITION FROM IPI83
READING POSITION FROM IPI84
READING POSITION FROM IPI85
READING POSITION FROM IPI86
READING POSITION FROM IPI87
READING POSITION FROM IPI88
READING POSITION FROM IPI89
READING POSITION FROM IPI90
READING POSITION FROM IPI91
READING POSITION FROM IPI92
READING POSITION FROM IPI93
READING POSITION FROM IPI94
READING POSITION FROM IPI95
READING POSITION FROM IPI96
READING POSITION FROM IPI97
READING POSITION FROM IPI98
READING POSITION FROM IPI99
READING POSITION FROM IPI100
READING POSITION FROM IPI101
READING POSITION FROM IPI102
READING POSITION FROM IPI103
READING POSITION FROM IPI104
READING POSITION FROM IPI105
READING POSITION FROM IPI106
READING POSITION FROM IPI107
READING POSITION FROM IPI108
READING POSITION FROM IPI109
READING POSITION FROM IPI110
READING POSITION FROM IPI111
READING POSITION FROM IPI112
READING POSITION FROM IPI113
READING POSITION FROM IPI114
READING POSITION FROM IPI115
READING POSITION FROM IPI116
READING POSITION FROM IPI117
READING POSITION FROM IPI118
READING POSITION FROM IPI119
READING POSITION FROM IPI120
READING POSITION FROM IPI121
READING POSITION FROM IPI122
READING POSITION FROM IPI123
READING POSITION FROM IPI124
READING POSITION FROM IPI125
READING POSITION FROM IPI126
READING POSITION FROM IPI127
READING POSITION FROM IPI128
READING POSITION FROM IPI129
READING POSITION FROM IPI130
ERROR on proc 0: Got EXIT message from i-PI. Now leaving! (../fix_ipi.cpp:289)
