LAMMPS (17 Nov 2016)
Reading data file ...
  triclinic box = (-3.4858 -4.57323 -6.40482) to (3.4858 4.57323 6.40482) with tilt (1.1 1.1 1.1)
  1 by 1 by 1 MPI processor grid
  reading atoms ...
  80 atoms
  scanning bonds ...
  3 = max bonds/atom
  scanning angles ...
  6 = max angles/atom
  scanning dihedrals ...
  18 = max dihedrals/atom
  scanning impropers ...
  2 = max impropers/atom
  reading bonds ...
  80 bonds
  reading angles ...
  124 angles
  reading dihedrals ...
  224 dihedrals
  reading impropers ...
  32 impropers
Finding 1-2 1-3 1-4 neighbors ...
 Special bond factors lj:   0          0          0         
 Special bond factors coul: 0          0          0         
  4 = max # of 1-2 neighbors
  6 = max # of 1-3 neighbors
  12 = max # of 1-4 neighbors
  14 = max # of special neighbors
PPPM initialization ...
WARNING: Using 12-bit tables for long-range coulomb (../kspace.cpp:317)
  G vector (1/distance) = 0.272429
  grid = 5 6 8
  stencil order = 5
  estimated absolute RMS force accuracy = 0.00493156
  estimated relative force accuracy = 1.48512e-05
  using double precision FFTs
  3d grid and FFT values/proc = 2340 240
Neighbor list info ...
  1 neighbor list requests
  update every 1 steps, delay 0 steps, check yes
  max neighbors/atom: 2000, page size: 100000
  master list distance cutoff = 12
  ghost atom cutoff = 12
  binsize = 6, bins = 2 2 3
Setting up Verlet run ...
  Unit style    : real
  Current step  : 0
  Time step     : 1
WARNING: Bond/angle/dihedral extent > half of periodic box length (../domain.cpp:906)
Memory usage per processor = 14.9948 Mbytes
Step Temp E_pair E_mol TotEng Press 
       0            0 6.0895677e+08    53.653003 6.0895683e+08 2.0448259e+11 
READING POSITION FROM IPI1
READING POSITION FROM IPI2
READING POSITION FROM IPI3
READING POSITION FROM IPI4
READING POSITION FROM IPI5
READING POSITION FROM IPI6
READING POSITION FROM IPI7
READING POSITION FROM IPI8
READING POSITION FROM IPI9
READING POSITION FROM IPI10
READING POSITION FROM IPI11
READING POSITION FROM IPI12
READING POSITION FROM IPI13
READING POSITION FROM IPI14
READING POSITION FROM IPI15
READING POSITION FROM IPI16
READING POSITION FROM IPI17
READING POSITION FROM IPI18
READING POSITION FROM IPI19
READING POSITION FROM IPI20
READING POSITION FROM IPI21
READING POSITION FROM IPI22
READING POSITION FROM IPI23
READING POSITION FROM IPI24
READING POSITION FROM IPI25
READING POSITION FROM IPI26
READING POSITION FROM IPI27
READING POSITION FROM IPI28
READING POSITION FROM IPI29
READING POSITION FROM IPI30
READING POSITION FROM IPI31
READING POSITION FROM IPI32
READING POSITION FROM IPI33
READING POSITION FROM IPI34
READING POSITION FROM IPI35
READING POSITION FROM IPI36
READING POSITION FROM IPI37
READING POSITION FROM IPI38
READING POSITION FROM IPI39
READING POSITION FROM IPI40
READING POSITION FROM IPI41
READING POSITION FROM IPI42
READING POSITION FROM IPI43
READING POSITION FROM IPI44
READING POSITION FROM IPI45
READING POSITION FROM IPI46
READING POSITION FROM IPI47
READING POSITION FROM IPI48
READING POSITION FROM IPI49
READING POSITION FROM IPI50
READING POSITION FROM IPI51
READING POSITION FROM IPI52
READING POSITION FROM IPI53
READING POSITION FROM IPI54
READING POSITION FROM IPI55
READING POSITION FROM IPI56
READING POSITION FROM IPI57
READING POSITION FROM IPI58
READING POSITION FROM IPI59
READING POSITION FROM IPI60
READING POSITION FROM IPI61
READING POSITION FROM IPI62
READING POSITION FROM IPI63
READING POSITION FROM IPI64
READING POSITION FROM IPI65
READING POSITION FROM IPI66
READING POSITION FROM IPI67
READING POSITION FROM IPI68
READING POSITION FROM IPI69
READING POSITION FROM IPI70
READING POSITION FROM IPI71
READING POSITION FROM IPI72
READING POSITION FROM IPI73
READING POSITION FROM IPI74
READING POSITION FROM IPI75
READING POSITION FROM IPI76
READING POSITION FROM IPI77
READING POSITION FROM IPI78
READING POSITION FROM IPI79
READING POSITION FROM IPI80
READING POSITION FROM IPI81
READING POSITION FROM IPI82
READING POSITION FROM IPI83
READING POSITION FROM IPI84
READING POSITION FROM IPI85
READING POSITION FROM IPI86
READING POSITION FROM IPI87
READING POSITION FROM IPI88
READING POSITION FROM IPI89
READING POSITION FROM IPI90
READING POSITION FROM IPI91
READING POSITION FROM IPI92
READING POSITION FROM IPI93
READING POSITION FROM IPI94
READING POSITION FROM IPI95
READING POSITION FROM IPI96
READING POSITION FROM IPI97
READING POSITION FROM IPI98
READING POSITION FROM IPI99
READING POSITION FROM IPI100
     100            0   -325.38886    46.910939   -278.47792   -4708.6894 
READING POSITION FROM IPI101
READING POSITION FROM IPI102
READING POSITION FROM IPI103
READING POSITION FROM IPI104
READING POSITION FROM IPI105
READING POSITION FROM IPI106
READING POSITION FROM IPI107
READING POSITION FROM IPI108
READING POSITION FROM IPI109
READING POSITION FROM IPI110
READING POSITION FROM IPI111
READING POSITION FROM IPI112
READING POSITION FROM IPI113
READING POSITION FROM IPI114
READING POSITION FROM IPI115
READING POSITION FROM IPI116
READING POSITION FROM IPI117
READING POSITION FROM IPI118
READING POSITION FROM IPI119
READING POSITION FROM IPI120
READING POSITION FROM IPI121
READING POSITION FROM IPI122
READING POSITION FROM IPI123
READING POSITION FROM IPI124
READING POSITION FROM IPI125
READING POSITION FROM IPI126
READING POSITION FROM IPI127
READING POSITION FROM IPI128
READING POSITION FROM IPI129
READING POSITION FROM IPI130
READING POSITION FROM IPI131
READING POSITION FROM IPI132
READING POSITION FROM IPI133
READING POSITION FROM IPI134
READING POSITION FROM IPI135
READING POSITION FROM IPI136
READING POSITION FROM IPI137
READING POSITION FROM IPI138
READING POSITION FROM IPI139
READING POSITION FROM IPI140
READING POSITION FROM IPI141
READING POSITION FROM IPI142
READING POSITION FROM IPI143
READING POSITION FROM IPI144
READING POSITION FROM IPI145
READING POSITION FROM IPI146
READING POSITION FROM IPI147
READING POSITION FROM IPI148
READING POSITION FROM IPI149
READING POSITION FROM IPI150
READING POSITION FROM IPI151
READING POSITION FROM IPI152
READING POSITION FROM IPI153
READING POSITION FROM IPI154
READING POSITION FROM IPI155
READING POSITION FROM IPI156
READING POSITION FROM IPI157
READING POSITION FROM IPI158
READING POSITION FROM IPI159
READING POSITION FROM IPI160
READING POSITION FROM IPI161
READING POSITION FROM IPI162
READING POSITION FROM IPI163
READING POSITION FROM IPI164
READING POSITION FROM IPI165
READING POSITION FROM IPI166
READING POSITION FROM IPI167
READING POSITION FROM IPI168
READING POSITION FROM IPI169
READING POSITION FROM IPI170
READING POSITION FROM IPI171
READING POSITION FROM IPI172
READING POSITION FROM IPI173
READING POSITION FROM IPI174
READING POSITION FROM IPI175
READING POSITION FROM IPI176
READING POSITION FROM IPI177
READING POSITION FROM IPI178
READING POSITION FROM IPI179
READING POSITION FROM IPI180
READING POSITION FROM IPI181
READING POSITION FROM IPI182
READING POSITION FROM IPI183
READING POSITION FROM IPI184
READING POSITION FROM IPI185
READING POSITION FROM IPI186
READING POSITION FROM IPI187
READING POSITION FROM IPI188
READING POSITION FROM IPI189
READING POSITION FROM IPI190
READING POSITION FROM IPI191
READING POSITION FROM IPI192
READING POSITION FROM IPI193
READING POSITION FROM IPI194
READING POSITION FROM IPI195
READING POSITION FROM IPI196
READING POSITION FROM IPI197
READING POSITION FROM IPI198
READING POSITION FROM IPI199
READING POSITION FROM IPI200
     200            0   -325.37529    44.613347   -280.76194   -4590.6969 
READING POSITION FROM IPI201
READING POSITION FROM IPI202
READING POSITION FROM IPI203
READING POSITION FROM IPI204
READING POSITION FROM IPI205
READING POSITION FROM IPI206
READING POSITION FROM IPI207
READING POSITION FROM IPI208
READING POSITION FROM IPI209
READING POSITION FROM IPI210
READING POSITION FROM IPI211
READING POSITION FROM IPI212
READING POSITION FROM IPI213
READING POSITION FROM IPI214
READING POSITION FROM IPI215
READING POSITION FROM IPI216
READING POSITION FROM IPI217
READING POSITION FROM IPI218
READING POSITION FROM IPI219
READING POSITION FROM IPI220
READING POSITION FROM IPI221
READING POSITION FROM IPI222
READING POSITION FROM IPI223
READING POSITION FROM IPI224
READING POSITION FROM IPI225
READING POSITION FROM IPI226
READING POSITION FROM IPI227
READING POSITION FROM IPI228
READING POSITION FROM IPI229
READING POSITION FROM IPI230
READING POSITION FROM IPI231
READING POSITION FROM IPI232
READING POSITION FROM IPI233
READING POSITION FROM IPI234
READING POSITION FROM IPI235
READING POSITION FROM IPI236
READING POSITION FROM IPI237
READING POSITION FROM IPI238
READING POSITION FROM IPI239
READING POSITION FROM IPI240
READING POSITION FROM IPI241
READING POSITION FROM IPI242
READING POSITION FROM IPI243
READING POSITION FROM IPI244
READING POSITION FROM IPI245
READING POSITION FROM IPI246
READING POSITION FROM IPI247
READING POSITION FROM IPI248
READING POSITION FROM IPI249
READING POSITION FROM IPI250
READING POSITION FROM IPI251
READING POSITION FROM IPI252
READING POSITION FROM IPI253
READING POSITION FROM IPI254
READING POSITION FROM IPI255
READING POSITION FROM IPI256
READING POSITION FROM IPI257
READING POSITION FROM IPI258
READING POSITION FROM IPI259
READING POSITION FROM IPI260
READING POSITION FROM IPI261
READING POSITION FROM IPI262
READING POSITION FROM IPI263
READING POSITION FROM IPI264
READING POSITION FROM IPI265
READING POSITION FROM IPI266
READING POSITION FROM IPI267
READING POSITION FROM IPI268
READING POSITION FROM IPI269
READING POSITION FROM IPI270
READING POSITION FROM IPI271
READING POSITION FROM IPI272
READING POSITION FROM IPI273
READING POSITION FROM IPI274
READING POSITION FROM IPI275
READING POSITION FROM IPI276
READING POSITION FROM IPI277
READING POSITION FROM IPI278
READING POSITION FROM IPI279
READING POSITION FROM IPI280
READING POSITION FROM IPI281
READING POSITION FROM IPI282
READING POSITION FROM IPI283
READING POSITION FROM IPI284
READING POSITION FROM IPI285
READING POSITION FROM IPI286
READING POSITION FROM IPI287
READING POSITION FROM IPI288
READING POSITION FROM IPI289
READING POSITION FROM IPI290
READING POSITION FROM IPI291
READING POSITION FROM IPI292
READING POSITION FROM IPI293
READING POSITION FROM IPI294
READING POSITION FROM IPI295
READING POSITION FROM IPI296
READING POSITION FROM IPI297
READING POSITION FROM IPI298
READING POSITION FROM IPI299
READING POSITION FROM IPI300
     300            0   -325.65879    43.883829   -281.77496   -6005.5434 
READING POSITION FROM IPI301
READING POSITION FROM IPI302
READING POSITION FROM IPI303
READING POSITION FROM IPI304
READING POSITION FROM IPI305
READING POSITION FROM IPI306
READING POSITION FROM IPI307
READING POSITION FROM IPI308
READING POSITION FROM IPI309
READING POSITION FROM IPI310
READING POSITION FROM IPI311
READING POSITION FROM IPI312
READING POSITION FROM IPI313
READING POSITION FROM IPI314
READING POSITION FROM IPI315
READING POSITION FROM IPI316
READING POSITION FROM IPI317
READING POSITION FROM IPI318
READING POSITION FROM IPI319
READING POSITION FROM IPI320
READING POSITION FROM IPI321
READING POSITION FROM IPI322
READING POSITION FROM IPI323
READING POSITION FROM IPI324
READING POSITION FROM IPI325
READING POSITION FROM IPI326
READING POSITION FROM IPI327
READING POSITION FROM IPI328
READING POSITION FROM IPI329
READING POSITION FROM IPI330
READING POSITION FROM IPI331
READING POSITION FROM IPI332
READING POSITION FROM IPI333
READING POSITION FROM IPI334
READING POSITION FROM IPI335
READING POSITION FROM IPI336
READING POSITION FROM IPI337
READING POSITION FROM IPI338
READING POSITION FROM IPI339
READING POSITION FROM IPI340
READING POSITION FROM IPI341
READING POSITION FROM IPI342
READING POSITION FROM IPI343
READING POSITION FROM IPI344
READING POSITION FROM IPI345
READING POSITION FROM IPI346
READING POSITION FROM IPI347
READING POSITION FROM IPI348
READING POSITION FROM IPI349
READING POSITION FROM IPI350
READING POSITION FROM IPI351
READING POSITION FROM IPI352
READING POSITION FROM IPI353
READING POSITION FROM IPI354
READING POSITION FROM IPI355
READING POSITION FROM IPI356
READING POSITION FROM IPI357
READING POSITION FROM IPI358
READING POSITION FROM IPI359
READING POSITION FROM IPI360
READING POSITION FROM IPI361
READING POSITION FROM IPI362
READING POSITION FROM IPI363
READING POSITION FROM IPI364
READING POSITION FROM IPI365
READING POSITION FROM IPI366
READING POSITION FROM IPI367
READING POSITION FROM IPI368
READING POSITION FROM IPI369
READING POSITION FROM IPI370
READING POSITION FROM IPI371
READING POSITION FROM IPI372
READING POSITION FROM IPI373
READING POSITION FROM IPI374
READING POSITION FROM IPI375
READING POSITION FROM IPI376
READING POSITION FROM IPI377
READING POSITION FROM IPI378
READING POSITION FROM IPI379
READING POSITION FROM IPI380
READING POSITION FROM IPI381
READING POSITION FROM IPI382
READING POSITION FROM IPI383
READING POSITION FROM IPI384
READING POSITION FROM IPI385
READING POSITION FROM IPI386
READING POSITION FROM IPI387
READING POSITION FROM IPI388
READING POSITION FROM IPI389
READING POSITION FROM IPI390
READING POSITION FROM IPI391
READING POSITION FROM IPI392
READING POSITION FROM IPI393
READING POSITION FROM IPI394
READING POSITION FROM IPI395
READING POSITION FROM IPI396
READING POSITION FROM IPI397
READING POSITION FROM IPI398
READING POSITION FROM IPI399
READING POSITION FROM IPI400
     400            0   -325.50645     42.79382   -282.71263    -5359.993 
READING POSITION FROM IPI401
READING POSITION FROM IPI402
READING POSITION FROM IPI403
READING POSITION FROM IPI404
READING POSITION FROM IPI405
READING POSITION FROM IPI406
READING POSITION FROM IPI407
READING POSITION FROM IPI408
READING POSITION FROM IPI409
READING POSITION FROM IPI410
READING POSITION FROM IPI411
READING POSITION FROM IPI412
READING POSITION FROM IPI413
READING POSITION FROM IPI414
READING POSITION FROM IPI415
READING POSITION FROM IPI416
READING POSITION FROM IPI417
READING POSITION FROM IPI418
READING POSITION FROM IPI419
READING POSITION FROM IPI420
READING POSITION FROM IPI421
READING POSITION FROM IPI422
READING POSITION FROM IPI423
READING POSITION FROM IPI424
READING POSITION FROM IPI425
READING POSITION FROM IPI426
READING POSITION FROM IPI427
READING POSITION FROM IPI428
READING POSITION FROM IPI429
READING POSITION FROM IPI430
READING POSITION FROM IPI431
READING POSITION FROM IPI432
READING POSITION FROM IPI433
READING POSITION FROM IPI434
READING POSITION FROM IPI435
READING POSITION FROM IPI436
READING POSITION FROM IPI437
READING POSITION FROM IPI438
READING POSITION FROM IPI439
READING POSITION FROM IPI440
READING POSITION FROM IPI441
READING POSITION FROM IPI442
READING POSITION FROM IPI443
READING POSITION FROM IPI444
READING POSITION FROM IPI445
READING POSITION FROM IPI446
READING POSITION FROM IPI447
READING POSITION FROM IPI448
READING POSITION FROM IPI449
READING POSITION FROM IPI450
READING POSITION FROM IPI451
READING POSITION FROM IPI452
READING POSITION FROM IPI453
READING POSITION FROM IPI454
READING POSITION FROM IPI455
READING POSITION FROM IPI456
READING POSITION FROM IPI457
READING POSITION FROM IPI458
READING POSITION FROM IPI459
READING POSITION FROM IPI460
READING POSITION FROM IPI461
READING POSITION FROM IPI462
READING POSITION FROM IPI463
READING POSITION FROM IPI464
READING POSITION FROM IPI465
READING POSITION FROM IPI466
READING POSITION FROM IPI467
READING POSITION FROM IPI468
READING POSITION FROM IPI469
READING POSITION FROM IPI470
READING POSITION FROM IPI471
READING POSITION FROM IPI472
READING POSITION FROM IPI473
READING POSITION FROM IPI474
READING POSITION FROM IPI475
READING POSITION FROM IPI476
READING POSITION FROM IPI477
READING POSITION FROM IPI478
READING POSITION FROM IPI479
READING POSITION FROM IPI480
READING POSITION FROM IPI481
READING POSITION FROM IPI482
READING POSITION FROM IPI483
READING POSITION FROM IPI484
READING POSITION FROM IPI485
READING POSITION FROM IPI486
READING POSITION FROM IPI487
READING POSITION FROM IPI488
READING POSITION FROM IPI489
READING POSITION FROM IPI490
READING POSITION FROM IPI491
READING POSITION FROM IPI492
READING POSITION FROM IPI493
READING POSITION FROM IPI494
READING POSITION FROM IPI495
READING POSITION FROM IPI496
READING POSITION FROM IPI497
READING POSITION FROM IPI498
READING POSITION FROM IPI499
READING POSITION FROM IPI500
     500            0   -325.33276    41.924953   -283.40781   -4707.8102 
READING POSITION FROM IPI501
READING POSITION FROM IPI502
READING POSITION FROM IPI503
READING POSITION FROM IPI504
READING POSITION FROM IPI505
READING POSITION FROM IPI506
READING POSITION FROM IPI507
READING POSITION FROM IPI508
READING POSITION FROM IPI509
READING POSITION FROM IPI510
READING POSITION FROM IPI511
READING POSITION FROM IPI512
READING POSITION FROM IPI513
READING POSITION FROM IPI514
READING POSITION FROM IPI515
READING POSITION FROM IPI516
READING POSITION FROM IPI517
READING POSITION FROM IPI518
READING POSITION FROM IPI519
READING POSITION FROM IPI520
READING POSITION FROM IPI521
READING POSITION FROM IPI522
READING POSITION FROM IPI523
READING POSITION FROM IPI524
READING POSITION FROM IPI525
READING POSITION FROM IPI526
READING POSITION FROM IPI527
READING POSITION FROM IPI528
READING POSITION FROM IPI529
READING POSITION FROM IPI530
READING POSITION FROM IPI531
READING POSITION FROM IPI532
READING POSITION FROM IPI533
READING POSITION FROM IPI534
READING POSITION FROM IPI535
READING POSITION FROM IPI536
READING POSITION FROM IPI537
READING POSITION FROM IPI538
READING POSITION FROM IPI539
READING POSITION FROM IPI540
READING POSITION FROM IPI541
READING POSITION FROM IPI542
READING POSITION FROM IPI543
READING POSITION FROM IPI544
READING POSITION FROM IPI545
READING POSITION FROM IPI546
READING POSITION FROM IPI547
READING POSITION FROM IPI548
READING POSITION FROM IPI549
READING POSITION FROM IPI550
READING POSITION FROM IPI551
READING POSITION FROM IPI552
READING POSITION FROM IPI553
READING POSITION FROM IPI554
READING POSITION FROM IPI555
READING POSITION FROM IPI556
READING POSITION FROM IPI557
READING POSITION FROM IPI558
READING POSITION FROM IPI559
READING POSITION FROM IPI560
READING POSITION FROM IPI561
READING POSITION FROM IPI562
READING POSITION FROM IPI563
READING POSITION FROM IPI564
READING POSITION FROM IPI565
READING POSITION FROM IPI566
READING POSITION FROM IPI567
READING POSITION FROM IPI568
READING POSITION FROM IPI569
READING POSITION FROM IPI570
READING POSITION FROM IPI571
READING POSITION FROM IPI572
READING POSITION FROM IPI573
READING POSITION FROM IPI574
READING POSITION FROM IPI575
READING POSITION FROM IPI576
READING POSITION FROM IPI577
READING POSITION FROM IPI578
READING POSITION FROM IPI579
READING POSITION FROM IPI580
READING POSITION FROM IPI581
READING POSITION FROM IPI582
READING POSITION FROM IPI583
READING POSITION FROM IPI584
READING POSITION FROM IPI585
READING POSITION FROM IPI586
READING POSITION FROM IPI587
READING POSITION FROM IPI588
READING POSITION FROM IPI589
READING POSITION FROM IPI590
READING POSITION FROM IPI591
READING POSITION FROM IPI592
READING POSITION FROM IPI593
READING POSITION FROM IPI594
READING POSITION FROM IPI595
READING POSITION FROM IPI596
READING POSITION FROM IPI597
READING POSITION FROM IPI598
READING POSITION FROM IPI599
READING POSITION FROM IPI600
     600            0   -325.15863    41.205511   -283.95312   -4158.3877 
READING POSITION FROM IPI601
READING POSITION FROM IPI602
READING POSITION FROM IPI603
READING POSITION FROM IPI604
READING POSITION FROM IPI605
READING POSITION FROM IPI606
READING POSITION FROM IPI607
READING POSITION FROM IPI608
READING POSITION FROM IPI609
READING POSITION FROM IPI610
READING POSITION FROM IPI611
READING POSITION FROM IPI612
READING POSITION FROM IPI613
READING POSITION FROM IPI614
READING POSITION FROM IPI615
READING POSITION FROM IPI616
READING POSITION FROM IPI617
READING POSITION FROM IPI618
READING POSITION FROM IPI619
READING POSITION FROM IPI620
READING POSITION FROM IPI621
READING POSITION FROM IPI622
READING POSITION FROM IPI623
READING POSITION FROM IPI624
READING POSITION FROM IPI625
READING POSITION FROM IPI626
READING POSITION FROM IPI627
READING POSITION FROM IPI628
READING POSITION FROM IPI629
READING POSITION FROM IPI630
READING POSITION FROM IPI631
READING POSITION FROM IPI632
READING POSITION FROM IPI633
READING POSITION FROM IPI634
READING POSITION FROM IPI635
READING POSITION FROM IPI636
READING POSITION FROM IPI637
READING POSITION FROM IPI638
READING POSITION FROM IPI639
READING POSITION FROM IPI640
READING POSITION FROM IPI641
READING POSITION FROM IPI642
READING POSITION FROM IPI643
READING POSITION FROM IPI644
READING POSITION FROM IPI645
READING POSITION FROM IPI646
READING POSITION FROM IPI647
READING POSITION FROM IPI648
READING POSITION FROM IPI649
READING POSITION FROM IPI650
READING POSITION FROM IPI651
READING POSITION FROM IPI652
READING POSITION FROM IPI653
READING POSITION FROM IPI654
READING POSITION FROM IPI655
READING POSITION FROM IPI656
READING POSITION FROM IPI657
READING POSITION FROM IPI658
READING POSITION FROM IPI659
READING POSITION FROM IPI660
READING POSITION FROM IPI661
READING POSITION FROM IPI662
READING POSITION FROM IPI663
READING POSITION FROM IPI664
READING POSITION FROM IPI665
READING POSITION FROM IPI666
READING POSITION FROM IPI667
READING POSITION FROM IPI668
READING POSITION FROM IPI669
READING POSITION FROM IPI670
READING POSITION FROM IPI671
READING POSITION FROM IPI672
READING POSITION FROM IPI673
READING POSITION FROM IPI674
READING POSITION FROM IPI675
READING POSITION FROM IPI676
READING POSITION FROM IPI677
READING POSITION FROM IPI678
READING POSITION FROM IPI679
READING POSITION FROM IPI680
READING POSITION FROM IPI681
READING POSITION FROM IPI682
READING POSITION FROM IPI683
READING POSITION FROM IPI684
READING POSITION FROM IPI685
READING POSITION FROM IPI686
READING POSITION FROM IPI687
READING POSITION FROM IPI688
READING POSITION FROM IPI689
READING POSITION FROM IPI690
READING POSITION FROM IPI691
READING POSITION FROM IPI692
READING POSITION FROM IPI693
READING POSITION FROM IPI694
READING POSITION FROM IPI695
READING POSITION FROM IPI696
READING POSITION FROM IPI697
READING POSITION FROM IPI698
READING POSITION FROM IPI699
READING POSITION FROM IPI700
     700            0   -324.98811    40.604152   -284.38396    -3690.959 
READING POSITION FROM IPI701
READING POSITION FROM IPI702
READING POSITION FROM IPI703
READING POSITION FROM IPI704
READING POSITION FROM IPI705
READING POSITION FROM IPI706
READING POSITION FROM IPI707
READING POSITION FROM IPI708
READING POSITION FROM IPI709
READING POSITION FROM IPI710
READING POSITION FROM IPI711
READING POSITION FROM IPI712
READING POSITION FROM IPI713
READING POSITION FROM IPI714
READING POSITION FROM IPI715
READING POSITION FROM IPI716
READING POSITION FROM IPI717
READING POSITION FROM IPI718
READING POSITION FROM IPI719
READING POSITION FROM IPI720
READING POSITION FROM IPI721
READING POSITION FROM IPI722
READING POSITION FROM IPI723
READING POSITION FROM IPI724
READING POSITION FROM IPI725
READING POSITION FROM IPI726
READING POSITION FROM IPI727
READING POSITION FROM IPI728
READING POSITION FROM IPI729
READING POSITION FROM IPI730
READING POSITION FROM IPI731
READING POSITION FROM IPI732
READING POSITION FROM IPI733
READING POSITION FROM IPI734
READING POSITION FROM IPI735
READING POSITION FROM IPI736
READING POSITION FROM IPI737
READING POSITION FROM IPI738
READING POSITION FROM IPI739
READING POSITION FROM IPI740
READING POSITION FROM IPI741
READING POSITION FROM IPI742
READING POSITION FROM IPI743
READING POSITION FROM IPI744
READING POSITION FROM IPI745
READING POSITION FROM IPI746
READING POSITION FROM IPI747
READING POSITION FROM IPI748
READING POSITION FROM IPI749
READING POSITION FROM IPI750
READING POSITION FROM IPI751
READING POSITION FROM IPI752
READING POSITION FROM IPI753
READING POSITION FROM IPI754
READING POSITION FROM IPI755
READING POSITION FROM IPI756
READING POSITION FROM IPI757
READING POSITION FROM IPI758
READING POSITION FROM IPI759
READING POSITION FROM IPI760
READING POSITION FROM IPI761
READING POSITION FROM IPI762
READING POSITION FROM IPI763
READING POSITION FROM IPI764
READING POSITION FROM IPI765
READING POSITION FROM IPI766
READING POSITION FROM IPI767
READING POSITION FROM IPI768
READING POSITION FROM IPI769
READING POSITION FROM IPI770
READING POSITION FROM IPI771
READING POSITION FROM IPI772
READING POSITION FROM IPI773
READING POSITION FROM IPI774
READING POSITION FROM IPI775
READING POSITION FROM IPI776
READING POSITION FROM IPI777
READING POSITION FROM IPI778
READING POSITION FROM IPI779
READING POSITION FROM IPI780
READING POSITION FROM IPI781
READING POSITION FROM IPI782
READING POSITION FROM IPI783
READING POSITION FROM IPI784
READING POSITION FROM IPI785
READING POSITION FROM IPI786
READING POSITION FROM IPI787
READING POSITION FROM IPI788
READING POSITION FROM IPI789
READING POSITION FROM IPI790
READING POSITION FROM IPI791
READING POSITION FROM IPI792
READING POSITION FROM IPI793
READING POSITION FROM IPI794
READING POSITION FROM IPI795
READING POSITION FROM IPI796
READING POSITION FROM IPI797
READING POSITION FROM IPI798
READING POSITION FROM IPI799
READING POSITION FROM IPI800
     800            0   -324.82397    40.080043   -284.74393   -3270.1998 
READING POSITION FROM IPI801
READING POSITION FROM IPI802
READING POSITION FROM IPI803
READING POSITION FROM IPI804
READING POSITION FROM IPI805
READING POSITION FROM IPI806
READING POSITION FROM IPI807
READING POSITION FROM IPI808
READING POSITION FROM IPI809
READING POSITION FROM IPI810
READING POSITION FROM IPI811
READING POSITION FROM IPI812
READING POSITION FROM IPI813
READING POSITION FROM IPI814
READING POSITION FROM IPI815
READING POSITION FROM IPI816
READING POSITION FROM IPI817
READING POSITION FROM IPI818
READING POSITION FROM IPI819
READING POSITION FROM IPI820
READING POSITION FROM IPI821
READING POSITION FROM IPI822
READING POSITION FROM IPI823
READING POSITION FROM IPI824
READING POSITION FROM IPI825
READING POSITION FROM IPI826
READING POSITION FROM IPI827
READING POSITION FROM IPI828
READING POSITION FROM IPI829
READING POSITION FROM IPI830
READING POSITION FROM IPI831
READING POSITION FROM IPI832
READING POSITION FROM IPI833
READING POSITION FROM IPI834
READING POSITION FROM IPI835
READING POSITION FROM IPI836
READING POSITION FROM IPI837
READING POSITION FROM IPI838
READING POSITION FROM IPI839
READING POSITION FROM IPI840
READING POSITION FROM IPI841
READING POSITION FROM IPI842
READING POSITION FROM IPI843
READING POSITION FROM IPI844
READING POSITION FROM IPI845
READING POSITION FROM IPI846
READING POSITION FROM IPI847
READING POSITION FROM IPI848
READING POSITION FROM IPI849
READING POSITION FROM IPI850
READING POSITION FROM IPI851
READING POSITION FROM IPI852
READING POSITION FROM IPI853
READING POSITION FROM IPI854
READING POSITION FROM IPI855
READING POSITION FROM IPI856
READING POSITION FROM IPI857
READING POSITION FROM IPI858
READING POSITION FROM IPI859
READING POSITION FROM IPI860
READING POSITION FROM IPI861
READING POSITION FROM IPI862
READING POSITION FROM IPI863
READING POSITION FROM IPI864
READING POSITION FROM IPI865
READING POSITION FROM IPI866
READING POSITION FROM IPI867
READING POSITION FROM IPI868
READING POSITION FROM IPI869
READING POSITION FROM IPI870
READING POSITION FROM IPI871
READING POSITION FROM IPI872
READING POSITION FROM IPI873
READING POSITION FROM IPI874
READING POSITION FROM IPI875
READING POSITION FROM IPI876
READING POSITION FROM IPI877
READING POSITION FROM IPI878
READING POSITION FROM IPI879
READING POSITION FROM IPI880
READING POSITION FROM IPI881
READING POSITION FROM IPI882
READING POSITION FROM IPI883
READING POSITION FROM IPI884
READING POSITION FROM IPI885
READING POSITION FROM IPI886
READING POSITION FROM IPI887
READING POSITION FROM IPI888
READING POSITION FROM IPI889
READING POSITION FROM IPI890
READING POSITION FROM IPI891
READING POSITION FROM IPI892
READING POSITION FROM IPI893
READING POSITION FROM IPI894
READING POSITION FROM IPI895
READING POSITION FROM IPI896
READING POSITION FROM IPI897
READING POSITION FROM IPI898
READING POSITION FROM IPI899
READING POSITION FROM IPI900
     900            0   -324.66562    39.618625     -285.047   -2900.1778 
READING POSITION FROM IPI901
READING POSITION FROM IPI902
READING POSITION FROM IPI903
READING POSITION FROM IPI904
READING POSITION FROM IPI905
READING POSITION FROM IPI906
READING POSITION FROM IPI907
READING POSITION FROM IPI908
READING POSITION FROM IPI909
READING POSITION FROM IPI910
READING POSITION FROM IPI911
READING POSITION FROM IPI912
READING POSITION FROM IPI913
READING POSITION FROM IPI914
READING POSITION FROM IPI915
READING POSITION FROM IPI916
READING POSITION FROM IPI917
READING POSITION FROM IPI918
READING POSITION FROM IPI919
READING POSITION FROM IPI920
READING POSITION FROM IPI921
READING POSITION FROM IPI922
READING POSITION FROM IPI923
READING POSITION FROM IPI924
READING POSITION FROM IPI925
READING POSITION FROM IPI926
READING POSITION FROM IPI927
READING POSITION FROM IPI928
READING POSITION FROM IPI929
READING POSITION FROM IPI930
READING POSITION FROM IPI931
READING POSITION FROM IPI932
READING POSITION FROM IPI933
READING POSITION FROM IPI934
READING POSITION FROM IPI935
READING POSITION FROM IPI936
READING POSITION FROM IPI937
READING POSITION FROM IPI938
READING POSITION FROM IPI939
READING POSITION FROM IPI940
READING POSITION FROM IPI941
READING POSITION FROM IPI942
READING POSITION FROM IPI943
READING POSITION FROM IPI944
READING POSITION FROM IPI945
READING POSITION FROM IPI946
READING POSITION FROM IPI947
READING POSITION FROM IPI948
READING POSITION FROM IPI949
READING POSITION FROM IPI950
READING POSITION FROM IPI951
READING POSITION FROM IPI952
READING POSITION FROM IPI953
READING POSITION FROM IPI954
READING POSITION FROM IPI955
READING POSITION FROM IPI956
READING POSITION FROM IPI957
READING POSITION FROM IPI958
READING POSITION FROM IPI959
READING POSITION FROM IPI960
READING POSITION FROM IPI961
READING POSITION FROM IPI962
READING POSITION FROM IPI963
READING POSITION FROM IPI964
READING POSITION FROM IPI965
READING POSITION FROM IPI966
READING POSITION FROM IPI967
READING POSITION FROM IPI968
READING POSITION FROM IPI969
READING POSITION FROM IPI970
READING POSITION FROM IPI971
READING POSITION FROM IPI972
READING POSITION FROM IPI973
READING POSITION FROM IPI974
READING POSITION FROM IPI975
READING POSITION FROM IPI976
READING POSITION FROM IPI977
READING POSITION FROM IPI978
READING POSITION FROM IPI979
READING POSITION FROM IPI980
READING POSITION FROM IPI981
READING POSITION FROM IPI982
READING POSITION FROM IPI983
READING POSITION FROM IPI984
READING POSITION FROM IPI985
READING POSITION FROM IPI986
READING POSITION FROM IPI987
READING POSITION FROM IPI988
READING POSITION FROM IPI989
READING POSITION FROM IPI990
READING POSITION FROM IPI991
READING POSITION FROM IPI992
READING POSITION FROM IPI993
READING POSITION FROM IPI994
READING POSITION FROM IPI995
READING POSITION FROM IPI996
READING POSITION FROM IPI997
READING POSITION FROM IPI998
READING POSITION FROM IPI999
READING POSITION FROM IPI1000
    1000            0   -324.51044    39.194998   -285.31544   -2532.8413 
READING POSITION FROM IPI1001
READING POSITION FROM IPI1002
READING POSITION FROM IPI1003
READING POSITION FROM IPI1004
READING POSITION FROM IPI1005
READING POSITION FROM IPI1006
READING POSITION FROM IPI1007
READING POSITION FROM IPI1008
READING POSITION FROM IPI1009
READING POSITION FROM IPI1010
READING POSITION FROM IPI1011
READING POSITION FROM IPI1012
READING POSITION FROM IPI1013
READING POSITION FROM IPI1014
READING POSITION FROM IPI1015
READING POSITION FROM IPI1016
READING POSITION FROM IPI1017
READING POSITION FROM IPI1018
READING POSITION FROM IPI1019
READING POSITION FROM IPI1020
READING POSITION FROM IPI1021
READING POSITION FROM IPI1022
READING POSITION FROM IPI1023
READING POSITION FROM IPI1024
READING POSITION FROM IPI1025
READING POSITION FROM IPI1026
READING POSITION FROM IPI1027
READING POSITION FROM IPI1028
READING POSITION FROM IPI1029
READING POSITION FROM IPI1030
READING POSITION FROM IPI1031
READING POSITION FROM IPI1032
READING POSITION FROM IPI1033
READING POSITION FROM IPI1034
READING POSITION FROM IPI1035
READING POSITION FROM IPI1036
READING POSITION FROM IPI1037
READING POSITION FROM IPI1038
READING POSITION FROM IPI1039
READING POSITION FROM IPI1040
READING POSITION FROM IPI1041
READING POSITION FROM IPI1042
READING POSITION FROM IPI1043
READING POSITION FROM IPI1044
READING POSITION FROM IPI1045
READING POSITION FROM IPI1046
READING POSITION FROM IPI1047
READING POSITION FROM IPI1048
READING POSITION FROM IPI1049
READING POSITION FROM IPI1050
READING POSITION FROM IPI1051
READING POSITION FROM IPI1052
READING POSITION FROM IPI1053
READING POSITION FROM IPI1054
READING POSITION FROM IPI1055
READING POSITION FROM IPI1056
READING POSITION FROM IPI1057
READING POSITION FROM IPI1058
READING POSITION FROM IPI1059
READING POSITION FROM IPI1060
READING POSITION FROM IPI1061
READING POSITION FROM IPI1062
READING POSITION FROM IPI1063
READING POSITION FROM IPI1064
READING POSITION FROM IPI1065
READING POSITION FROM IPI1066
READING POSITION FROM IPI1067
READING POSITION FROM IPI1068
READING POSITION FROM IPI1069
READING POSITION FROM IPI1070
READING POSITION FROM IPI1071
READING POSITION FROM IPI1072
READING POSITION FROM IPI1073
READING POSITION FROM IPI1074
READING POSITION FROM IPI1075
READING POSITION FROM IPI1076
READING POSITION FROM IPI1077
READING POSITION FROM IPI1078
READING POSITION FROM IPI1079
READING POSITION FROM IPI1080
READING POSITION FROM IPI1081
READING POSITION FROM IPI1082
READING POSITION FROM IPI1083
READING POSITION FROM IPI1084
READING POSITION FROM IPI1085
READING POSITION FROM IPI1086
READING POSITION FROM IPI1087
READING POSITION FROM IPI1088
READING POSITION FROM IPI1089
READING POSITION FROM IPI1090
READING POSITION FROM IPI1091
READING POSITION FROM IPI1092
READING POSITION FROM IPI1093
READING POSITION FROM IPI1094
READING POSITION FROM IPI1095
READING POSITION FROM IPI1096
READING POSITION FROM IPI1097
READING POSITION FROM IPI1098
READING POSITION FROM IPI1099
READING POSITION FROM IPI1100
    1100            0   -324.37171     38.80848   -285.56323   -2238.8799 
READING POSITION FROM IPI1101
READING POSITION FROM IPI1102
READING POSITION FROM IPI1103
READING POSITION FROM IPI1104
READING POSITION FROM IPI1105
READING POSITION FROM IPI1106
READING POSITION FROM IPI1107
READING POSITION FROM IPI1108
READING POSITION FROM IPI1109
READING POSITION FROM IPI1110
READING POSITION FROM IPI1111
READING POSITION FROM IPI1112
READING POSITION FROM IPI1113
READING POSITION FROM IPI1114
READING POSITION FROM IPI1115
READING POSITION FROM IPI1116
READING POSITION FROM IPI1117
READING POSITION FROM IPI1118
READING POSITION FROM IPI1119
READING POSITION FROM IPI1120
READING POSITION FROM IPI1121
READING POSITION FROM IPI1122
READING POSITION FROM IPI1123
READING POSITION FROM IPI1124
READING POSITION FROM IPI1125
READING POSITION FROM IPI1126
READING POSITION FROM IPI1127
READING POSITION FROM IPI1128
READING POSITION FROM IPI1129
READING POSITION FROM IPI1130
READING POSITION FROM IPI1131
READING POSITION FROM IPI1132
READING POSITION FROM IPI1133
READING POSITION FROM IPI1134
READING POSITION FROM IPI1135
READING POSITION FROM IPI1136
READING POSITION FROM IPI1137
READING POSITION FROM IPI1138
READING POSITION FROM IPI1139
READING POSITION FROM IPI1140
READING POSITION FROM IPI1141
READING POSITION FROM IPI1142
READING POSITION FROM IPI1143
READING POSITION FROM IPI1144
READING POSITION FROM IPI1145
READING POSITION FROM IPI1146
READING POSITION FROM IPI1147
READING POSITION FROM IPI1148
READING POSITION FROM IPI1149
READING POSITION FROM IPI1150
READING POSITION FROM IPI1151
READING POSITION FROM IPI1152
READING POSITION FROM IPI1153
READING POSITION FROM IPI1154
READING POSITION FROM IPI1155
READING POSITION FROM IPI1156
READING POSITION FROM IPI1157
READING POSITION FROM IPI1158
READING POSITION FROM IPI1159
READING POSITION FROM IPI1160
READING POSITION FROM IPI1161
READING POSITION FROM IPI1162
READING POSITION FROM IPI1163
READING POSITION FROM IPI1164
READING POSITION FROM IPI1165
READING POSITION FROM IPI1166
READING POSITION FROM IPI1167
READING POSITION FROM IPI1168
READING POSITION FROM IPI1169
READING POSITION FROM IPI1170
READING POSITION FROM IPI1171
READING POSITION FROM IPI1172
READING POSITION FROM IPI1173
READING POSITION FROM IPI1174
READING POSITION FROM IPI1175
READING POSITION FROM IPI1176
READING POSITION FROM IPI1177
READING POSITION FROM IPI1178
READING POSITION FROM IPI1179
READING POSITION FROM IPI1180
READING POSITION FROM IPI1181
READING POSITION FROM IPI1182
READING POSITION FROM IPI1183
READING POSITION FROM IPI1184
READING POSITION FROM IPI1185
READING POSITION FROM IPI1186
READING POSITION FROM IPI1187
READING POSITION FROM IPI1188
READING POSITION FROM IPI1189
READING POSITION FROM IPI1190
READING POSITION FROM IPI1191
READING POSITION FROM IPI1192
READING POSITION FROM IPI1193
READING POSITION FROM IPI1194
READING POSITION FROM IPI1195
READING POSITION FROM IPI1196
READING POSITION FROM IPI1197
READING POSITION FROM IPI1198
READING POSITION FROM IPI1199
READING POSITION FROM IPI1200
    1200            0   -324.23993    38.458805   -285.78112   -1966.8171 
READING POSITION FROM IPI1201
READING POSITION FROM IPI1202
READING POSITION FROM IPI1203
READING POSITION FROM IPI1204
READING POSITION FROM IPI1205
READING POSITION FROM IPI1206
READING POSITION FROM IPI1207
READING POSITION FROM IPI1208
READING POSITION FROM IPI1209
READING POSITION FROM IPI1210
READING POSITION FROM IPI1211
READING POSITION FROM IPI1212
READING POSITION FROM IPI1213
READING POSITION FROM IPI1214
READING POSITION FROM IPI1215
READING POSITION FROM IPI1216
READING POSITION FROM IPI1217
READING POSITION FROM IPI1218
READING POSITION FROM IPI1219
READING POSITION FROM IPI1220
READING POSITION FROM IPI1221
READING POSITION FROM IPI1222
READING POSITION FROM IPI1223
READING POSITION FROM IPI1224
READING POSITION FROM IPI1225
READING POSITION FROM IPI1226
READING POSITION FROM IPI1227
READING POSITION FROM IPI1228
READING POSITION FROM IPI1229
READING POSITION FROM IPI1230
READING POSITION FROM IPI1231
READING POSITION FROM IPI1232
READING POSITION FROM IPI1233
READING POSITION FROM IPI1234
READING POSITION FROM IPI1235
READING POSITION FROM IPI1236
READING POSITION FROM IPI1237
READING POSITION FROM IPI1238
READING POSITION FROM IPI1239
READING POSITION FROM IPI1240
READING POSITION FROM IPI1241
READING POSITION FROM IPI1242
READING POSITION FROM IPI1243
READING POSITION FROM IPI1244
READING POSITION FROM IPI1245
READING POSITION FROM IPI1246
READING POSITION FROM IPI1247
READING POSITION FROM IPI1248
READING POSITION FROM IPI1249
READING POSITION FROM IPI1250
READING POSITION FROM IPI1251
READING POSITION FROM IPI1252
READING POSITION FROM IPI1253
READING POSITION FROM IPI1254
READING POSITION FROM IPI1255
READING POSITION FROM IPI1256
READING POSITION FROM IPI1257
READING POSITION FROM IPI1258
READING POSITION FROM IPI1259
READING POSITION FROM IPI1260
READING POSITION FROM IPI1261
READING POSITION FROM IPI1262
READING POSITION FROM IPI1263
READING POSITION FROM IPI1264
READING POSITION FROM IPI1265
READING POSITION FROM IPI1266
READING POSITION FROM IPI1267
READING POSITION FROM IPI1268
READING POSITION FROM IPI1269
READING POSITION FROM IPI1270
READING POSITION FROM IPI1271
READING POSITION FROM IPI1272
READING POSITION FROM IPI1273
READING POSITION FROM IPI1274
READING POSITION FROM IPI1275
READING POSITION FROM IPI1276
READING POSITION FROM IPI1277
READING POSITION FROM IPI1278
READING POSITION FROM IPI1279
READING POSITION FROM IPI1280
READING POSITION FROM IPI1281
READING POSITION FROM IPI1282
READING POSITION FROM IPI1283
READING POSITION FROM IPI1284
READING POSITION FROM IPI1285
READING POSITION FROM IPI1286
READING POSITION FROM IPI1287
READING POSITION FROM IPI1288
READING POSITION FROM IPI1289
READING POSITION FROM IPI1290
READING POSITION FROM IPI1291
READING POSITION FROM IPI1292
READING POSITION FROM IPI1293
READING POSITION FROM IPI1294
READING POSITION FROM IPI1295
READING POSITION FROM IPI1296
READING POSITION FROM IPI1297
READING POSITION FROM IPI1298
READING POSITION FROM IPI1299
READING POSITION FROM IPI1300
    1300            0   -323.96062    37.942229   -286.01839   -1067.2701 
READING POSITION FROM IPI1301
READING POSITION FROM IPI1302
READING POSITION FROM IPI1303
READING POSITION FROM IPI1304
READING POSITION FROM IPI1305
READING POSITION FROM IPI1306
READING POSITION FROM IPI1307
READING POSITION FROM IPI1308
READING POSITION FROM IPI1309
READING POSITION FROM IPI1310
READING POSITION FROM IPI1311
READING POSITION FROM IPI1312
READING POSITION FROM IPI1313
READING POSITION FROM IPI1314
READING POSITION FROM IPI1315
READING POSITION FROM IPI1316
READING POSITION FROM IPI1317
READING POSITION FROM IPI1318
READING POSITION FROM IPI1319
READING POSITION FROM IPI1320
READING POSITION FROM IPI1321
READING POSITION FROM IPI1322
READING POSITION FROM IPI1323
READING POSITION FROM IPI1324
READING POSITION FROM IPI1325
READING POSITION FROM IPI1326
READING POSITION FROM IPI1327
READING POSITION FROM IPI1328
READING POSITION FROM IPI1329
READING POSITION FROM IPI1330
READING POSITION FROM IPI1331
READING POSITION FROM IPI1332
READING POSITION FROM IPI1333
READING POSITION FROM IPI1334
READING POSITION FROM IPI1335
READING POSITION FROM IPI1336
READING POSITION FROM IPI1337
READING POSITION FROM IPI1338
READING POSITION FROM IPI1339
READING POSITION FROM IPI1340
READING POSITION FROM IPI1341
READING POSITION FROM IPI1342
READING POSITION FROM IPI1343
READING POSITION FROM IPI1344
READING POSITION FROM IPI1345
READING POSITION FROM IPI1346
READING POSITION FROM IPI1347
READING POSITION FROM IPI1348
READING POSITION FROM IPI1349
READING POSITION FROM IPI1350
READING POSITION FROM IPI1351
READING POSITION FROM IPI1352
READING POSITION FROM IPI1353
READING POSITION FROM IPI1354
READING POSITION FROM IPI1355
READING POSITION FROM IPI1356
READING POSITION FROM IPI1357
READING POSITION FROM IPI1358
READING POSITION FROM IPI1359
READING POSITION FROM IPI1360
READING POSITION FROM IPI1361
READING POSITION FROM IPI1362
READING POSITION FROM IPI1363
READING POSITION FROM IPI1364
READING POSITION FROM IPI1365
READING POSITION FROM IPI1366
READING POSITION FROM IPI1367
READING POSITION FROM IPI1368
READING POSITION FROM IPI1369
READING POSITION FROM IPI1370
READING POSITION FROM IPI1371
READING POSITION FROM IPI1372
READING POSITION FROM IPI1373
READING POSITION FROM IPI1374
READING POSITION FROM IPI1375
READING POSITION FROM IPI1376
READING POSITION FROM IPI1377
READING POSITION FROM IPI1378
READING POSITION FROM IPI1379
READING POSITION FROM IPI1380
READING POSITION FROM IPI1381
READING POSITION FROM IPI1382
READING POSITION FROM IPI1383
READING POSITION FROM IPI1384
READING POSITION FROM IPI1385
READING POSITION FROM IPI1386
READING POSITION FROM IPI1387
READING POSITION FROM IPI1388
READING POSITION FROM IPI1389
READING POSITION FROM IPI1390
READING POSITION FROM IPI1391
READING POSITION FROM IPI1392
READING POSITION FROM IPI1393
READING POSITION FROM IPI1394
READING POSITION FROM IPI1395
READING POSITION FROM IPI1396
READING POSITION FROM IPI1397
READING POSITION FROM IPI1398
READING POSITION FROM IPI1399
READING POSITION FROM IPI1400
    1400            0   -323.88157    37.697895   -286.18368   -974.95121 
READING POSITION FROM IPI1401
READING POSITION FROM IPI1402
READING POSITION FROM IPI1403
READING POSITION FROM IPI1404
READING POSITION FROM IPI1405
READING POSITION FROM IPI1406
READING POSITION FROM IPI1407
READING POSITION FROM IPI1408
READING POSITION FROM IPI1409
READING POSITION FROM IPI1410
READING POSITION FROM IPI1411
READING POSITION FROM IPI1412
READING POSITION FROM IPI1413
READING POSITION FROM IPI1414
READING POSITION FROM IPI1415
READING POSITION FROM IPI1416
READING POSITION FROM IPI1417
READING POSITION FROM IPI1418
READING POSITION FROM IPI1419
READING POSITION FROM IPI1420
READING POSITION FROM IPI1421
READING POSITION FROM IPI1422
READING POSITION FROM IPI1423
READING POSITION FROM IPI1424
READING POSITION FROM IPI1425
READING POSITION FROM IPI1426
READING POSITION FROM IPI1427
READING POSITION FROM IPI1428
READING POSITION FROM IPI1429
READING POSITION FROM IPI1430
READING POSITION FROM IPI1431
READING POSITION FROM IPI1432
READING POSITION FROM IPI1433
READING POSITION FROM IPI1434
READING POSITION FROM IPI1435
READING POSITION FROM IPI1436
READING POSITION FROM IPI1437
READING POSITION FROM IPI1438
READING POSITION FROM IPI1439
READING POSITION FROM IPI1440
READING POSITION FROM IPI1441
READING POSITION FROM IPI1442
READING POSITION FROM IPI1443
READING POSITION FROM IPI1444
READING POSITION FROM IPI1445
READING POSITION FROM IPI1446
READING POSITION FROM IPI1447
READING POSITION FROM IPI1448
READING POSITION FROM IPI1449
READING POSITION FROM IPI1450
READING POSITION FROM IPI1451
READING POSITION FROM IPI1452
READING POSITION FROM IPI1453
READING POSITION FROM IPI1454
READING POSITION FROM IPI1455
READING POSITION FROM IPI1456
READING POSITION FROM IPI1457
READING POSITION FROM IPI1458
READING POSITION FROM IPI1459
READING POSITION FROM IPI1460
READING POSITION FROM IPI1461
READING POSITION FROM IPI1462
READING POSITION FROM IPI1463
READING POSITION FROM IPI1464
READING POSITION FROM IPI1465
READING POSITION FROM IPI1466
READING POSITION FROM IPI1467
READING POSITION FROM IPI1468
READING POSITION FROM IPI1469
READING POSITION FROM IPI1470
READING POSITION FROM IPI1471
READING POSITION FROM IPI1472
READING POSITION FROM IPI1473
READING POSITION FROM IPI1474
READING POSITION FROM IPI1475
READING POSITION FROM IPI1476
READING POSITION FROM IPI1477
READING POSITION FROM IPI1478
READING POSITION FROM IPI1479
READING POSITION FROM IPI1480
READING POSITION FROM IPI1481
READING POSITION FROM IPI1482
READING POSITION FROM IPI1483
READING POSITION FROM IPI1484
READING POSITION FROM IPI1485
READING POSITION FROM IPI1486
READING POSITION FROM IPI1487
READING POSITION FROM IPI1488
READING POSITION FROM IPI1489
READING POSITION FROM IPI1490
READING POSITION FROM IPI1491
READING POSITION FROM IPI1492
READING POSITION FROM IPI1493
READING POSITION FROM IPI1494
READING POSITION FROM IPI1495
READING POSITION FROM IPI1496
READING POSITION FROM IPI1497
READING POSITION FROM IPI1498
READING POSITION FROM IPI1499
READING POSITION FROM IPI1500
    1500            0   -323.47381    37.321059   -286.15275    512.74723 
READING POSITION FROM IPI1501
READING POSITION FROM IPI1502
READING POSITION FROM IPI1503
READING POSITION FROM IPI1504
READING POSITION FROM IPI1505
READING POSITION FROM IPI1506
READING POSITION FROM IPI1507
READING POSITION FROM IPI1508
READING POSITION FROM IPI1509
READING POSITION FROM IPI1510
READING POSITION FROM IPI1511
READING POSITION FROM IPI1512
READING POSITION FROM IPI1513
READING POSITION FROM IPI1514
READING POSITION FROM IPI1515
READING POSITION FROM IPI1516
READING POSITION FROM IPI1517
READING POSITION FROM IPI1518
READING POSITION FROM IPI1519
READING POSITION FROM IPI1520
READING POSITION FROM IPI1521
READING POSITION FROM IPI1522
READING POSITION FROM IPI1523
READING POSITION FROM IPI1524
READING POSITION FROM IPI1525
READING POSITION FROM IPI1526
READING POSITION FROM IPI1527
READING POSITION FROM IPI1528
READING POSITION FROM IPI1529
READING POSITION FROM IPI1530
READING POSITION FROM IPI1531
READING POSITION FROM IPI1532
READING POSITION FROM IPI1533
READING POSITION FROM IPI1534
READING POSITION FROM IPI1535
READING POSITION FROM IPI1536
READING POSITION FROM IPI1537
READING POSITION FROM IPI1538
READING POSITION FROM IPI1539
READING POSITION FROM IPI1540
READING POSITION FROM IPI1541
READING POSITION FROM IPI1542
READING POSITION FROM IPI1543
READING POSITION FROM IPI1544
READING POSITION FROM IPI1545
READING POSITION FROM IPI1546
READING POSITION FROM IPI1547
READING POSITION FROM IPI1548
READING POSITION FROM IPI1549
READING POSITION FROM IPI1550
READING POSITION FROM IPI1551
READING POSITION FROM IPI1552
READING POSITION FROM IPI1553
READING POSITION FROM IPI1554
READING POSITION FROM IPI1555
READING POSITION FROM IPI1556
READING POSITION FROM IPI1557
READING POSITION FROM IPI1558
READING POSITION FROM IPI1559
READING POSITION FROM IPI1560
READING POSITION FROM IPI1561
READING POSITION FROM IPI1562
READING POSITION FROM IPI1563
READING POSITION FROM IPI1564
READING POSITION FROM IPI1565
READING POSITION FROM IPI1566
READING POSITION FROM IPI1567
READING POSITION FROM IPI1568
READING POSITION FROM IPI1569
READING POSITION FROM IPI1570
READING POSITION FROM IPI1571
READING POSITION FROM IPI1572
READING POSITION FROM IPI1573
READING POSITION FROM IPI1574
READING POSITION FROM IPI1575
READING POSITION FROM IPI1576
READING POSITION FROM IPI1577
READING POSITION FROM IPI1578
READING POSITION FROM IPI1579
READING POSITION FROM IPI1580
READING POSITION FROM IPI1581
READING POSITION FROM IPI1582
READING POSITION FROM IPI1583
READING POSITION FROM IPI1584
READING POSITION FROM IPI1585
READING POSITION FROM IPI1586
READING POSITION FROM IPI1587
READING POSITION FROM IPI1588
READING POSITION FROM IPI1589
READING POSITION FROM IPI1590
READING POSITION FROM IPI1591
READING POSITION FROM IPI1592
READING POSITION FROM IPI1593
READING POSITION FROM IPI1594
READING POSITION FROM IPI1595
READING POSITION FROM IPI1596
READING POSITION FROM IPI1597
READING POSITION FROM IPI1598
READING POSITION FROM IPI1599
READING POSITION FROM IPI1600
    1600            0   -323.82769    37.388399    -286.4393   -1177.7164 
READING POSITION FROM IPI1601
READING POSITION FROM IPI1602
READING POSITION FROM IPI1603
READING POSITION FROM IPI1604
READING POSITION FROM IPI1605
READING POSITION FROM IPI1606
READING POSITION FROM IPI1607
READING POSITION FROM IPI1608
READING POSITION FROM IPI1609
READING POSITION FROM IPI1610
READING POSITION FROM IPI1611
READING POSITION FROM IPI1612
READING POSITION FROM IPI1613
READING POSITION FROM IPI1614
READING POSITION FROM IPI1615
READING POSITION FROM IPI1616
READING POSITION FROM IPI1617
READING POSITION FROM IPI1618
READING POSITION FROM IPI1619
READING POSITION FROM IPI1620
READING POSITION FROM IPI1621
READING POSITION FROM IPI1622
READING POSITION FROM IPI1623
READING POSITION FROM IPI1624
READING POSITION FROM IPI1625
READING POSITION FROM IPI1626
READING POSITION FROM IPI1627
READING POSITION FROM IPI1628
READING POSITION FROM IPI1629
READING POSITION FROM IPI1630
READING POSITION FROM IPI1631
READING POSITION FROM IPI1632
READING POSITION FROM IPI1633
READING POSITION FROM IPI1634
READING POSITION FROM IPI1635
READING POSITION FROM IPI1636
READING POSITION FROM IPI1637
READING POSITION FROM IPI1638
READING POSITION FROM IPI1639
READING POSITION FROM IPI1640
READING POSITION FROM IPI1641
READING POSITION FROM IPI1642
READING POSITION FROM IPI1643
READING POSITION FROM IPI1644
READING POSITION FROM IPI1645
READING POSITION FROM IPI1646
READING POSITION FROM IPI1647
READING POSITION FROM IPI1648
READING POSITION FROM IPI1649
READING POSITION FROM IPI1650
READING POSITION FROM IPI1651
READING POSITION FROM IPI1652
READING POSITION FROM IPI1653
READING POSITION FROM IPI1654
READING POSITION FROM IPI1655
READING POSITION FROM IPI1656
READING POSITION FROM IPI1657
READING POSITION FROM IPI1658
READING POSITION FROM IPI1659
READING POSITION FROM IPI1660
READING POSITION FROM IPI1661
READING POSITION FROM IPI1662
READING POSITION FROM IPI1663
READING POSITION FROM IPI1664
READING POSITION FROM IPI1665
READING POSITION FROM IPI1666
READING POSITION FROM IPI1667
READING POSITION FROM IPI1668
READING POSITION FROM IPI1669
READING POSITION FROM IPI1670
READING POSITION FROM IPI1671
READING POSITION FROM IPI1672
READING POSITION FROM IPI1673
READING POSITION FROM IPI1674
READING POSITION FROM IPI1675
READING POSITION FROM IPI1676
READING POSITION FROM IPI1677
READING POSITION FROM IPI1678
READING POSITION FROM IPI1679
READING POSITION FROM IPI1680
READING POSITION FROM IPI1681
READING POSITION FROM IPI1682
READING POSITION FROM IPI1683
READING POSITION FROM IPI1684
READING POSITION FROM IPI1685
READING POSITION FROM IPI1686
READING POSITION FROM IPI1687
READING POSITION FROM IPI1688
READING POSITION FROM IPI1689
READING POSITION FROM IPI1690
READING POSITION FROM IPI1691
READING POSITION FROM IPI1692
READING POSITION FROM IPI1693
READING POSITION FROM IPI1694
READING POSITION FROM IPI1695
READING POSITION FROM IPI1696
READING POSITION FROM IPI1697
READING POSITION FROM IPI1698
READING POSITION FROM IPI1699
READING POSITION FROM IPI1700
    1700            0   -323.74918    37.173381    -286.5758   -1029.2603 
READING POSITION FROM IPI1701
READING POSITION FROM IPI1702
READING POSITION FROM IPI1703
READING POSITION FROM IPI1704
READING POSITION FROM IPI1705
READING POSITION FROM IPI1706
READING POSITION FROM IPI1707
READING POSITION FROM IPI1708
READING POSITION FROM IPI1709
READING POSITION FROM IPI1710
READING POSITION FROM IPI1711
READING POSITION FROM IPI1712
READING POSITION FROM IPI1713
READING POSITION FROM IPI1714
READING POSITION FROM IPI1715
READING POSITION FROM IPI1716
READING POSITION FROM IPI1717
READING POSITION FROM IPI1718
READING POSITION FROM IPI1719
READING POSITION FROM IPI1720
READING POSITION FROM IPI1721
READING POSITION FROM IPI1722
READING POSITION FROM IPI1723
READING POSITION FROM IPI1724
READING POSITION FROM IPI1725
READING POSITION FROM IPI1726
READING POSITION FROM IPI1727
READING POSITION FROM IPI1728
READING POSITION FROM IPI1729
READING POSITION FROM IPI1730
READING POSITION FROM IPI1731
READING POSITION FROM IPI1732
READING POSITION FROM IPI1733
READING POSITION FROM IPI1734
READING POSITION FROM IPI1735
READING POSITION FROM IPI1736
READING POSITION FROM IPI1737
READING POSITION FROM IPI1738
READING POSITION FROM IPI1739
READING POSITION FROM IPI1740
READING POSITION FROM IPI1741
READING POSITION FROM IPI1742
READING POSITION FROM IPI1743
READING POSITION FROM IPI1744
READING POSITION FROM IPI1745
READING POSITION FROM IPI1746
READING POSITION FROM IPI1747
READING POSITION FROM IPI1748
READING POSITION FROM IPI1749
READING POSITION FROM IPI1750
READING POSITION FROM IPI1751
READING POSITION FROM IPI1752
READING POSITION FROM IPI1753
READING POSITION FROM IPI1754
READING POSITION FROM IPI1755
READING POSITION FROM IPI1756
READING POSITION FROM IPI1757
READING POSITION FROM IPI1758
READING POSITION FROM IPI1759
READING POSITION FROM IPI1760
READING POSITION FROM IPI1761
READING POSITION FROM IPI1762
READING POSITION FROM IPI1763
READING POSITION FROM IPI1764
READING POSITION FROM IPI1765
READING POSITION FROM IPI1766
READING POSITION FROM IPI1767
READING POSITION FROM IPI1768
READING POSITION FROM IPI1769
READING POSITION FROM IPI1770
READING POSITION FROM IPI1771
READING POSITION FROM IPI1772
READING POSITION FROM IPI1773
READING POSITION FROM IPI1774
READING POSITION FROM IPI1775
READING POSITION FROM IPI1776
READING POSITION FROM IPI1777
READING POSITION FROM IPI1778
READING POSITION FROM IPI1779
READING POSITION FROM IPI1780
READING POSITION FROM IPI1781
READING POSITION FROM IPI1782
READING POSITION FROM IPI1783
READING POSITION FROM IPI1784
READING POSITION FROM IPI1785
READING POSITION FROM IPI1786
READING POSITION FROM IPI1787
READING POSITION FROM IPI1788
READING POSITION FROM IPI1789
READING POSITION FROM IPI1790
READING POSITION FROM IPI1791
READING POSITION FROM IPI1792
READING POSITION FROM IPI1793
READING POSITION FROM IPI1794
READING POSITION FROM IPI1795
READING POSITION FROM IPI1796
READING POSITION FROM IPI1797
READING POSITION FROM IPI1798
READING POSITION FROM IPI1799
READING POSITION FROM IPI1800
    1800            0   -323.67485    36.971673   -286.70318   -889.84145 
READING POSITION FROM IPI1801
READING POSITION FROM IPI1802
READING POSITION FROM IPI1803
READING POSITION FROM IPI1804
READING POSITION FROM IPI1805
READING POSITION FROM IPI1806
READING POSITION FROM IPI1807
READING POSITION FROM IPI1808
READING POSITION FROM IPI1809
READING POSITION FROM IPI1810
READING POSITION FROM IPI1811
READING POSITION FROM IPI1812
READING POSITION FROM IPI1813
READING POSITION FROM IPI1814
READING POSITION FROM IPI1815
READING POSITION FROM IPI1816
READING POSITION FROM IPI1817
READING POSITION FROM IPI1818
READING POSITION FROM IPI1819
READING POSITION FROM IPI1820
READING POSITION FROM IPI1821
READING POSITION FROM IPI1822
READING POSITION FROM IPI1823
READING POSITION FROM IPI1824
READING POSITION FROM IPI1825
READING POSITION FROM IPI1826
READING POSITION FROM IPI1827
READING POSITION FROM IPI1828
READING POSITION FROM IPI1829
READING POSITION FROM IPI1830
READING POSITION FROM IPI1831
READING POSITION FROM IPI1832
READING POSITION FROM IPI1833
READING POSITION FROM IPI1834
READING POSITION FROM IPI1835
READING POSITION FROM IPI1836
READING POSITION FROM IPI1837
READING POSITION FROM IPI1838
READING POSITION FROM IPI1839
READING POSITION FROM IPI1840
READING POSITION FROM IPI1841
READING POSITION FROM IPI1842
READING POSITION FROM IPI1843
READING POSITION FROM IPI1844
READING POSITION FROM IPI1845
READING POSITION FROM IPI1846
READING POSITION FROM IPI1847
READING POSITION FROM IPI1848
READING POSITION FROM IPI1849
READING POSITION FROM IPI1850
READING POSITION FROM IPI1851
READING POSITION FROM IPI1852
READING POSITION FROM IPI1853
READING POSITION FROM IPI1854
READING POSITION FROM IPI1855
READING POSITION FROM IPI1856
READING POSITION FROM IPI1857
READING POSITION FROM IPI1858
READING POSITION FROM IPI1859
READING POSITION FROM IPI1860
READING POSITION FROM IPI1861
READING POSITION FROM IPI1862
READING POSITION FROM IPI1863
READING POSITION FROM IPI1864
READING POSITION FROM IPI1865
READING POSITION FROM IPI1866
READING POSITION FROM IPI1867
READING POSITION FROM IPI1868
READING POSITION FROM IPI1869
READING POSITION FROM IPI1870
READING POSITION FROM IPI1871
READING POSITION FROM IPI1872
READING POSITION FROM IPI1873
READING POSITION FROM IPI1874
READING POSITION FROM IPI1875
READING POSITION FROM IPI1876
READING POSITION FROM IPI1877
READING POSITION FROM IPI1878
READING POSITION FROM IPI1879
READING POSITION FROM IPI1880
READING POSITION FROM IPI1881
READING POSITION FROM IPI1882
READING POSITION FROM IPI1883
READING POSITION FROM IPI1884
READING POSITION FROM IPI1885
READING POSITION FROM IPI1886
READING POSITION FROM IPI1887
READING POSITION FROM IPI1888
READING POSITION FROM IPI1889
READING POSITION FROM IPI1890
READING POSITION FROM IPI1891
READING POSITION FROM IPI1892
READING POSITION FROM IPI1893
READING POSITION FROM IPI1894
READING POSITION FROM IPI1895
READING POSITION FROM IPI1896
READING POSITION FROM IPI1897
READING POSITION FROM IPI1898
READING POSITION FROM IPI1899
READING POSITION FROM IPI1900
    1900            0   -323.60641    36.784883   -286.82153     -760.981 
READING POSITION FROM IPI1901
READING POSITION FROM IPI1902
READING POSITION FROM IPI1903
READING POSITION FROM IPI1904
READING POSITION FROM IPI1905
READING POSITION FROM IPI1906
READING POSITION FROM IPI1907
READING POSITION FROM IPI1908
READING POSITION FROM IPI1909
READING POSITION FROM IPI1910
READING POSITION FROM IPI1911
READING POSITION FROM IPI1912
READING POSITION FROM IPI1913
READING POSITION FROM IPI1914
READING POSITION FROM IPI1915
READING POSITION FROM IPI1916
READING POSITION FROM IPI1917
READING POSITION FROM IPI1918
READING POSITION FROM IPI1919
READING POSITION FROM IPI1920
READING POSITION FROM IPI1921
READING POSITION FROM IPI1922
READING POSITION FROM IPI1923
READING POSITION FROM IPI1924
READING POSITION FROM IPI1925
READING POSITION FROM IPI1926
READING POSITION FROM IPI1927
READING POSITION FROM IPI1928
READING POSITION FROM IPI1929
READING POSITION FROM IPI1930
READING POSITION FROM IPI1931
READING POSITION FROM IPI1932
READING POSITION FROM IPI1933
READING POSITION FROM IPI1934
READING POSITION FROM IPI1935
READING POSITION FROM IPI1936
READING POSITION FROM IPI1937
READING POSITION FROM IPI1938
READING POSITION FROM IPI1939
READING POSITION FROM IPI1940
READING POSITION FROM IPI1941
READING POSITION FROM IPI1942
READING POSITION FROM IPI1943
READING POSITION FROM IPI1944
READING POSITION FROM IPI1945
READING POSITION FROM IPI1946
READING POSITION FROM IPI1947
READING POSITION FROM IPI1948
READING POSITION FROM IPI1949
READING POSITION FROM IPI1950
READING POSITION FROM IPI1951
READING POSITION FROM IPI1952
READING POSITION FROM IPI1953
READING POSITION FROM IPI1954
READING POSITION FROM IPI1955
READING POSITION FROM IPI1956
READING POSITION FROM IPI1957
READING POSITION FROM IPI1958
READING POSITION FROM IPI1959
READING POSITION FROM IPI1960
READING POSITION FROM IPI1961
READING POSITION FROM IPI1962
READING POSITION FROM IPI1963
READING POSITION FROM IPI1964
READING POSITION FROM IPI1965
READING POSITION FROM IPI1966
READING POSITION FROM IPI1967
READING POSITION FROM IPI1968
READING POSITION FROM IPI1969
READING POSITION FROM IPI1970
READING POSITION FROM IPI1971
READING POSITION FROM IPI1972
READING POSITION FROM IPI1973
READING POSITION FROM IPI1974
READING POSITION FROM IPI1975
READING POSITION FROM IPI1976
READING POSITION FROM IPI1977
READING POSITION FROM IPI1978
READING POSITION FROM IPI1979
READING POSITION FROM IPI1980
READING POSITION FROM IPI1981
READING POSITION FROM IPI1982
READING POSITION FROM IPI1983
READING POSITION FROM IPI1984
READING POSITION FROM IPI1985
READING POSITION FROM IPI1986
READING POSITION FROM IPI1987
READING POSITION FROM IPI1988
READING POSITION FROM IPI1989
READING POSITION FROM IPI1990
READING POSITION FROM IPI1991
READING POSITION FROM IPI1992
READING POSITION FROM IPI1993
READING POSITION FROM IPI1994
READING POSITION FROM IPI1995
READING POSITION FROM IPI1996
READING POSITION FROM IPI1997
READING POSITION FROM IPI1998
READING POSITION FROM IPI1999
READING POSITION FROM IPI2000
    2000            0   -323.54577    36.611446   -286.93432   -651.24276 
READING POSITION FROM IPI2001
READING POSITION FROM IPI2002
READING POSITION FROM IPI2003
READING POSITION FROM IPI2004
READING POSITION FROM IPI2005
READING POSITION FROM IPI2006
READING POSITION FROM IPI2007
READING POSITION FROM IPI2008
READING POSITION FROM IPI2009
READING POSITION FROM IPI2010
READING POSITION FROM IPI2011
READING POSITION FROM IPI2012
READING POSITION FROM IPI2013
READING POSITION FROM IPI2014
READING POSITION FROM IPI2015
READING POSITION FROM IPI2016
READING POSITION FROM IPI2017
READING POSITION FROM IPI2018
READING POSITION FROM IPI2019
READING POSITION FROM IPI2020
READING POSITION FROM IPI2021
READING POSITION FROM IPI2022
READING POSITION FROM IPI2023
READING POSITION FROM IPI2024
READING POSITION FROM IPI2025
READING POSITION FROM IPI2026
READING POSITION FROM IPI2027
READING POSITION FROM IPI2028
READING POSITION FROM IPI2029
READING POSITION FROM IPI2030
READING POSITION FROM IPI2031
READING POSITION FROM IPI2032
READING POSITION FROM IPI2033
READING POSITION FROM IPI2034
READING POSITION FROM IPI2035
READING POSITION FROM IPI2036
READING POSITION FROM IPI2037
READING POSITION FROM IPI2038
READING POSITION FROM IPI2039
READING POSITION FROM IPI2040
READING POSITION FROM IPI2041
READING POSITION FROM IPI2042
READING POSITION FROM IPI2043
READING POSITION FROM IPI2044
READING POSITION FROM IPI2045
READING POSITION FROM IPI2046
READING POSITION FROM IPI2047
READING POSITION FROM IPI2048
READING POSITION FROM IPI2049
READING POSITION FROM IPI2050
READING POSITION FROM IPI2051
READING POSITION FROM IPI2052
READING POSITION FROM IPI2053
READING POSITION FROM IPI2054
READING POSITION FROM IPI2055
READING POSITION FROM IPI2056
READING POSITION FROM IPI2057
READING POSITION FROM IPI2058
READING POSITION FROM IPI2059
READING POSITION FROM IPI2060
READING POSITION FROM IPI2061
READING POSITION FROM IPI2062
READING POSITION FROM IPI2063
READING POSITION FROM IPI2064
READING POSITION FROM IPI2065
READING POSITION FROM IPI2066
READING POSITION FROM IPI2067
READING POSITION FROM IPI2068
READING POSITION FROM IPI2069
READING POSITION FROM IPI2070
READING POSITION FROM IPI2071
READING POSITION FROM IPI2072
READING POSITION FROM IPI2073
READING POSITION FROM IPI2074
READING POSITION FROM IPI2075
READING POSITION FROM IPI2076
READING POSITION FROM IPI2077
READING POSITION FROM IPI2078
READING POSITION FROM IPI2079
READING POSITION FROM IPI2080
READING POSITION FROM IPI2081
READING POSITION FROM IPI2082
READING POSITION FROM IPI2083
READING POSITION FROM IPI2084
READING POSITION FROM IPI2085
READING POSITION FROM IPI2086
READING POSITION FROM IPI2087
READING POSITION FROM IPI2088
READING POSITION FROM IPI2089
READING POSITION FROM IPI2090
READING POSITION FROM IPI2091
READING POSITION FROM IPI2092
READING POSITION FROM IPI2093
READING POSITION FROM IPI2094
READING POSITION FROM IPI2095
READING POSITION FROM IPI2096
READING POSITION FROM IPI2097
READING POSITION FROM IPI2098
READING POSITION FROM IPI2099
READING POSITION FROM IPI2100
    2100            0    -323.4912    36.450392   -287.04081   -549.96916 
READING POSITION FROM IPI2101
READING POSITION FROM IPI2102
READING POSITION FROM IPI2103
READING POSITION FROM IPI2104
READING POSITION FROM IPI2105
READING POSITION FROM IPI2106
READING POSITION FROM IPI2107
READING POSITION FROM IPI2108
READING POSITION FROM IPI2109
READING POSITION FROM IPI2110
READING POSITION FROM IPI2111
READING POSITION FROM IPI2112
READING POSITION FROM IPI2113
READING POSITION FROM IPI2114
READING POSITION FROM IPI2115
READING POSITION FROM IPI2116
READING POSITION FROM IPI2117
READING POSITION FROM IPI2118
READING POSITION FROM IPI2119
READING POSITION FROM IPI2120
READING POSITION FROM IPI2121
READING POSITION FROM IPI2122
READING POSITION FROM IPI2123
READING POSITION FROM IPI2124
READING POSITION FROM IPI2125
READING POSITION FROM IPI2126
READING POSITION FROM IPI2127
READING POSITION FROM IPI2128
READING POSITION FROM IPI2129
READING POSITION FROM IPI2130
READING POSITION FROM IPI2131
READING POSITION FROM IPI2132
READING POSITION FROM IPI2133
READING POSITION FROM IPI2134
READING POSITION FROM IPI2135
READING POSITION FROM IPI2136
READING POSITION FROM IPI2137
READING POSITION FROM IPI2138
READING POSITION FROM IPI2139
READING POSITION FROM IPI2140
READING POSITION FROM IPI2141
READING POSITION FROM IPI2142
READING POSITION FROM IPI2143
READING POSITION FROM IPI2144
READING POSITION FROM IPI2145
READING POSITION FROM IPI2146
READING POSITION FROM IPI2147
READING POSITION FROM IPI2148
READING POSITION FROM IPI2149
READING POSITION FROM IPI2150
READING POSITION FROM IPI2151
READING POSITION FROM IPI2152
READING POSITION FROM IPI2153
READING POSITION FROM IPI2154
READING POSITION FROM IPI2155
READING POSITION FROM IPI2156
READING POSITION FROM IPI2157
READING POSITION FROM IPI2158
READING POSITION FROM IPI2159
READING POSITION FROM IPI2160
READING POSITION FROM IPI2161
READING POSITION FROM IPI2162
READING POSITION FROM IPI2163
READING POSITION FROM IPI2164
READING POSITION FROM IPI2165
READING POSITION FROM IPI2166
READING POSITION FROM IPI2167
READING POSITION FROM IPI2168
READING POSITION FROM IPI2169
READING POSITION FROM IPI2170
READING POSITION FROM IPI2171
READING POSITION FROM IPI2172
READING POSITION FROM IPI2173
READING POSITION FROM IPI2174
READING POSITION FROM IPI2175
READING POSITION FROM IPI2176
READING POSITION FROM IPI2177
READING POSITION FROM IPI2178
READING POSITION FROM IPI2179
READING POSITION FROM IPI2180
READING POSITION FROM IPI2181
READING POSITION FROM IPI2182
READING POSITION FROM IPI2183
READING POSITION FROM IPI2184
READING POSITION FROM IPI2185
READING POSITION FROM IPI2186
READING POSITION FROM IPI2187
READING POSITION FROM IPI2188
READING POSITION FROM IPI2189
READING POSITION FROM IPI2190
READING POSITION FROM IPI2191
READING POSITION FROM IPI2192
READING POSITION FROM IPI2193
READING POSITION FROM IPI2194
READING POSITION FROM IPI2195
READING POSITION FROM IPI2196
READING POSITION FROM IPI2197
READING POSITION FROM IPI2198
READING POSITION FROM IPI2199
READING POSITION FROM IPI2200
    2200            0    -323.4421    36.298926   -287.14317   -455.36533 
READING POSITION FROM IPI2201
READING POSITION FROM IPI2202
READING POSITION FROM IPI2203
READING POSITION FROM IPI2204
READING POSITION FROM IPI2205
READING POSITION FROM IPI2206
READING POSITION FROM IPI2207
READING POSITION FROM IPI2208
READING POSITION FROM IPI2209
READING POSITION FROM IPI2210
READING POSITION FROM IPI2211
READING POSITION FROM IPI2212
READING POSITION FROM IPI2213
READING POSITION FROM IPI2214
READING POSITION FROM IPI2215
READING POSITION FROM IPI2216
READING POSITION FROM IPI2217
READING POSITION FROM IPI2218
READING POSITION FROM IPI2219
READING POSITION FROM IPI2220
READING POSITION FROM IPI2221
READING POSITION FROM IPI2222
READING POSITION FROM IPI2223
READING POSITION FROM IPI2224
READING POSITION FROM IPI2225
READING POSITION FROM IPI2226
READING POSITION FROM IPI2227
READING POSITION FROM IPI2228
READING POSITION FROM IPI2229
READING POSITION FROM IPI2230
READING POSITION FROM IPI2231
READING POSITION FROM IPI2232
READING POSITION FROM IPI2233
READING POSITION FROM IPI2234
READING POSITION FROM IPI2235
READING POSITION FROM IPI2236
READING POSITION FROM IPI2237
READING POSITION FROM IPI2238
READING POSITION FROM IPI2239
READING POSITION FROM IPI2240
READING POSITION FROM IPI2241
READING POSITION FROM IPI2242
READING POSITION FROM IPI2243
READING POSITION FROM IPI2244
READING POSITION FROM IPI2245
READING POSITION FROM IPI2246
READING POSITION FROM IPI2247
READING POSITION FROM IPI2248
READING POSITION FROM IPI2249
READING POSITION FROM IPI2250
READING POSITION FROM IPI2251
READING POSITION FROM IPI2252
READING POSITION FROM IPI2253
READING POSITION FROM IPI2254
READING POSITION FROM IPI2255
READING POSITION FROM IPI2256
READING POSITION FROM IPI2257
READING POSITION FROM IPI2258
READING POSITION FROM IPI2259
READING POSITION FROM IPI2260
READING POSITION FROM IPI2261
READING POSITION FROM IPI2262
READING POSITION FROM IPI2263
READING POSITION FROM IPI2264
READING POSITION FROM IPI2265
READING POSITION FROM IPI2266
READING POSITION FROM IPI2267
READING POSITION FROM IPI2268
READING POSITION FROM IPI2269
READING POSITION FROM IPI2270
READING POSITION FROM IPI2271
READING POSITION FROM IPI2272
READING POSITION FROM IPI2273
READING POSITION FROM IPI2274
READING POSITION FROM IPI2275
READING POSITION FROM IPI2276
READING POSITION FROM IPI2277
READING POSITION FROM IPI2278
READING POSITION FROM IPI2279
READING POSITION FROM IPI2280
READING POSITION FROM IPI2281
READING POSITION FROM IPI2282
READING POSITION FROM IPI2283
READING POSITION FROM IPI2284
READING POSITION FROM IPI2285
READING POSITION FROM IPI2286
READING POSITION FROM IPI2287
READING POSITION FROM IPI2288
READING POSITION FROM IPI2289
READING POSITION FROM IPI2290
READING POSITION FROM IPI2291
READING POSITION FROM IPI2292
READING POSITION FROM IPI2293
READING POSITION FROM IPI2294
READING POSITION FROM IPI2295
READING POSITION FROM IPI2296
READING POSITION FROM IPI2297
READING POSITION FROM IPI2298
READING POSITION FROM IPI2299
READING POSITION FROM IPI2300
    2300            0   -323.40204    36.165251   -287.23679     -383.108 
READING POSITION FROM IPI2301
READING POSITION FROM IPI2302
READING POSITION FROM IPI2303
READING POSITION FROM IPI2304
READING POSITION FROM IPI2305
READING POSITION FROM IPI2306
READING POSITION FROM IPI2307
READING POSITION FROM IPI2308
READING POSITION FROM IPI2309
READING POSITION FROM IPI2310
READING POSITION FROM IPI2311
READING POSITION FROM IPI2312
READING POSITION FROM IPI2313
READING POSITION FROM IPI2314
READING POSITION FROM IPI2315
READING POSITION FROM IPI2316
READING POSITION FROM IPI2317
READING POSITION FROM IPI2318
READING POSITION FROM IPI2319
READING POSITION FROM IPI2320
READING POSITION FROM IPI2321
READING POSITION FROM IPI2322
READING POSITION FROM IPI2323
READING POSITION FROM IPI2324
READING POSITION FROM IPI2325
READING POSITION FROM IPI2326
READING POSITION FROM IPI2327
READING POSITION FROM IPI2328
READING POSITION FROM IPI2329
READING POSITION FROM IPI2330
READING POSITION FROM IPI2331
READING POSITION FROM IPI2332
READING POSITION FROM IPI2333
READING POSITION FROM IPI2334
READING POSITION FROM IPI2335
READING POSITION FROM IPI2336
READING POSITION FROM IPI2337
READING POSITION FROM IPI2338
READING POSITION FROM IPI2339
READING POSITION FROM IPI2340
READING POSITION FROM IPI2341
READING POSITION FROM IPI2342
READING POSITION FROM IPI2343
READING POSITION FROM IPI2344
READING POSITION FROM IPI2345
READING POSITION FROM IPI2346
READING POSITION FROM IPI2347
READING POSITION FROM IPI2348
READING POSITION FROM IPI2349
READING POSITION FROM IPI2350
READING POSITION FROM IPI2351
READING POSITION FROM IPI2352
READING POSITION FROM IPI2353
READING POSITION FROM IPI2354
READING POSITION FROM IPI2355
READING POSITION FROM IPI2356
READING POSITION FROM IPI2357
READING POSITION FROM IPI2358
READING POSITION FROM IPI2359
READING POSITION FROM IPI2360
READING POSITION FROM IPI2361
READING POSITION FROM IPI2362
READING POSITION FROM IPI2363
READING POSITION FROM IPI2364
READING POSITION FROM IPI2365
READING POSITION FROM IPI2366
READING POSITION FROM IPI2367
READING POSITION FROM IPI2368
READING POSITION FROM IPI2369
READING POSITION FROM IPI2370
READING POSITION FROM IPI2371
READING POSITION FROM IPI2372
READING POSITION FROM IPI2373
READING POSITION FROM IPI2374
READING POSITION FROM IPI2375
READING POSITION FROM IPI2376
READING POSITION FROM IPI2377
READING POSITION FROM IPI2378
READING POSITION FROM IPI2379
READING POSITION FROM IPI2380
READING POSITION FROM IPI2381
READING POSITION FROM IPI2382
READING POSITION FROM IPI2383
READING POSITION FROM IPI2384
READING POSITION FROM IPI2385
READING POSITION FROM IPI2386
READING POSITION FROM IPI2387
READING POSITION FROM IPI2388
READING POSITION FROM IPI2389
READING POSITION FROM IPI2390
READING POSITION FROM IPI2391
READING POSITION FROM IPI2392
READING POSITION FROM IPI2393
READING POSITION FROM IPI2394
READING POSITION FROM IPI2395
READING POSITION FROM IPI2396
READING POSITION FROM IPI2397
READING POSITION FROM IPI2398
READING POSITION FROM IPI2399
READING POSITION FROM IPI2400
    2400            0    -323.3656    36.039006   -287.32659   -310.18946 
READING POSITION FROM IPI2401
READING POSITION FROM IPI2402
READING POSITION FROM IPI2403
READING POSITION FROM IPI2404
READING POSITION FROM IPI2405
READING POSITION FROM IPI2406
READING POSITION FROM IPI2407
READING POSITION FROM IPI2408
READING POSITION FROM IPI2409
READING POSITION FROM IPI2410
READING POSITION FROM IPI2411
READING POSITION FROM IPI2412
READING POSITION FROM IPI2413
READING POSITION FROM IPI2414
READING POSITION FROM IPI2415
READING POSITION FROM IPI2416
READING POSITION FROM IPI2417
READING POSITION FROM IPI2418
READING POSITION FROM IPI2419
READING POSITION FROM IPI2420
READING POSITION FROM IPI2421
READING POSITION FROM IPI2422
READING POSITION FROM IPI2423
READING POSITION FROM IPI2424
READING POSITION FROM IPI2425
READING POSITION FROM IPI2426
READING POSITION FROM IPI2427
READING POSITION FROM IPI2428
READING POSITION FROM IPI2429
READING POSITION FROM IPI2430
READING POSITION FROM IPI2431
READING POSITION FROM IPI2432
READING POSITION FROM IPI2433
READING POSITION FROM IPI2434
READING POSITION FROM IPI2435
READING POSITION FROM IPI2436
READING POSITION FROM IPI2437
READING POSITION FROM IPI2438
READING POSITION FROM IPI2439
READING POSITION FROM IPI2440
READING POSITION FROM IPI2441
READING POSITION FROM IPI2442
READING POSITION FROM IPI2443
READING POSITION FROM IPI2444
READING POSITION FROM IPI2445
READING POSITION FROM IPI2446
READING POSITION FROM IPI2447
READING POSITION FROM IPI2448
READING POSITION FROM IPI2449
READING POSITION FROM IPI2450
READING POSITION FROM IPI2451
READING POSITION FROM IPI2452
READING POSITION FROM IPI2453
READING POSITION FROM IPI2454
READING POSITION FROM IPI2455
READING POSITION FROM IPI2456
READING POSITION FROM IPI2457
READING POSITION FROM IPI2458
READING POSITION FROM IPI2459
READING POSITION FROM IPI2460
READING POSITION FROM IPI2461
READING POSITION FROM IPI2462
READING POSITION FROM IPI2463
READING POSITION FROM IPI2464
READING POSITION FROM IPI2465
READING POSITION FROM IPI2466
READING POSITION FROM IPI2467
READING POSITION FROM IPI2468
READING POSITION FROM IPI2469
READING POSITION FROM IPI2470
READING POSITION FROM IPI2471
READING POSITION FROM IPI2472
READING POSITION FROM IPI2473
READING POSITION FROM IPI2474
READING POSITION FROM IPI2475
READING POSITION FROM IPI2476
READING POSITION FROM IPI2477
READING POSITION FROM IPI2478
READING POSITION FROM IPI2479
READING POSITION FROM IPI2480
READING POSITION FROM IPI2481
READING POSITION FROM IPI2482
READING POSITION FROM IPI2483
READING POSITION FROM IPI2484
READING POSITION FROM IPI2485
READING POSITION FROM IPI2486
READING POSITION FROM IPI2487
READING POSITION FROM IPI2488
READING POSITION FROM IPI2489
READING POSITION FROM IPI2490
READING POSITION FROM IPI2491
READING POSITION FROM IPI2492
READING POSITION FROM IPI2493
READING POSITION FROM IPI2494
READING POSITION FROM IPI2495
READING POSITION FROM IPI2496
READING POSITION FROM IPI2497
READING POSITION FROM IPI2498
READING POSITION FROM IPI2499
READING POSITION FROM IPI2500
    2500            0   -323.33416    35.920481   -287.41368   -245.06302 
READING POSITION FROM IPI2501
READING POSITION FROM IPI2502
READING POSITION FROM IPI2503
READING POSITION FROM IPI2504
READING POSITION FROM IPI2505
READING POSITION FROM IPI2506
READING POSITION FROM IPI2507
READING POSITION FROM IPI2508
READING POSITION FROM IPI2509
READING POSITION FROM IPI2510
READING POSITION FROM IPI2511
READING POSITION FROM IPI2512
READING POSITION FROM IPI2513
READING POSITION FROM IPI2514
READING POSITION FROM IPI2515
READING POSITION FROM IPI2516
READING POSITION FROM IPI2517
READING POSITION FROM IPI2518
READING POSITION FROM IPI2519
READING POSITION FROM IPI2520
READING POSITION FROM IPI2521
READING POSITION FROM IPI2522
READING POSITION FROM IPI2523
READING POSITION FROM IPI2524
READING POSITION FROM IPI2525
READING POSITION FROM IPI2526
READING POSITION FROM IPI2527
READING POSITION FROM IPI2528
READING POSITION FROM IPI2529
READING POSITION FROM IPI2530
READING POSITION FROM IPI2531
READING POSITION FROM IPI2532
READING POSITION FROM IPI2533
READING POSITION FROM IPI2534
READING POSITION FROM IPI2535
READING POSITION FROM IPI2536
READING POSITION FROM IPI2537
READING POSITION FROM IPI2538
READING POSITION FROM IPI2539
READING POSITION FROM IPI2540
READING POSITION FROM IPI2541
READING POSITION FROM IPI2542
READING POSITION FROM IPI2543
READING POSITION FROM IPI2544
READING POSITION FROM IPI2545
READING POSITION FROM IPI2546
READING POSITION FROM IPI2547
READING POSITION FROM IPI2548
READING POSITION FROM IPI2549
READING POSITION FROM IPI2550
READING POSITION FROM IPI2551
READING POSITION FROM IPI2552
READING POSITION FROM IPI2553
READING POSITION FROM IPI2554
READING POSITION FROM IPI2555
READING POSITION FROM IPI2556
READING POSITION FROM IPI2557
READING POSITION FROM IPI2558
READING POSITION FROM IPI2559
READING POSITION FROM IPI2560
READING POSITION FROM IPI2561
READING POSITION FROM IPI2562
READING POSITION FROM IPI2563
READING POSITION FROM IPI2564
READING POSITION FROM IPI2565
READING POSITION FROM IPI2566
READING POSITION FROM IPI2567
READING POSITION FROM IPI2568
READING POSITION FROM IPI2569
READING POSITION FROM IPI2570
READING POSITION FROM IPI2571
READING POSITION FROM IPI2572
READING POSITION FROM IPI2573
READING POSITION FROM IPI2574
READING POSITION FROM IPI2575
READING POSITION FROM IPI2576
READING POSITION FROM IPI2577
READING POSITION FROM IPI2578
READING POSITION FROM IPI2579
READING POSITION FROM IPI2580
READING POSITION FROM IPI2581
READING POSITION FROM IPI2582
READING POSITION FROM IPI2583
[...]
READING POSITION FROM IPI36461
READING POSITION FROM IPI36462
READING POSITION FROM IPI36463
READING POSITION FROM IPI36464
READING POSITION FROM IPI36465
READING POSITION FROM IPI36466
READING POSITION FROM IPI36467
READING POSITION FROM IPI36468
READING POSITION FROM IPI36469
READING POSITION FROM IPI36470
READING POSITION FROM IPI36471
READING POSITION FROM IPI36472
READING POSITION FROM IPI36473
READING POSITION FROM IPI36474
READING POSITION FROM IPI36475
READING POSITION FROM IPI36476
READING POSITION FROM IPI36477
READING POSITION FROM IPI36478
READING POSITION FROM IPI36479
READING POSITION FROM IPI36480
READING POSITION FROM IPI36481
READING POSITION FROM IPI36482
READING POSITION FROM IPI36483
READING POSITION FROM IPI36484
READING POSITION FROM IPI36485
READING POSITION FROM IPI36486
READING POSITION FROM IPI36487
READING POSITION FROM IPI36488
READING POSITION FROM IPI36489
READING POSITION FROM IPI36490
READING POSITION FROM IPI36491
READING POSITION FROM IPI36492
READING POSITION FROM IPI36493
READING POSITION FROM IPI36494
READING POSITION FROM IPI36495
READING POSITION FROM IPI36496
READING POSITION FROM IPI36497
READING POSITION FROM IPI36498
READING POSITION FROM IPI36499
READING POSITION FROM IPI36500
   36500            0   -323.16643    34.667151   -288.49928    351.21652 
READING POSITION FROM IPI36501
READING POSITION FROM IPI36502
READING POSITION FROM IPI36503
READING POSITION FROM IPI36504
READING POSITION FROM IPI36505
READING POSITION FROM IPI36506
READING POSITION FROM IPI36507
READING POSITION FROM IPI36508
READING POSITION FROM IPI36509
READING POSITION FROM IPI36510
READING POSITION FROM IPI36511
READING POSITION FROM IPI36512
READING POSITION FROM IPI36513
READING POSITION FROM IPI36514
READING POSITION FROM IPI36515
READING POSITION FROM IPI36516
READING POSITION FROM IPI36517
READING POSITION FROM IPI36518
READING POSITION FROM IPI36519
READING POSITION FROM IPI36520
READING POSITION FROM IPI36521
READING POSITION FROM IPI36522
READING POSITION FROM IPI36523
READING POSITION FROM IPI36524
READING POSITION FROM IPI36525
READING POSITION FROM IPI36526
READING POSITION FROM IPI36527
READING POSITION FROM IPI36528
READING POSITION FROM IPI36529
READING POSITION FROM IPI36530
READING POSITION FROM IPI36531
READING POSITION FROM IPI36532
READING POSITION FROM IPI36533
READING POSITION FROM IPI36534
READING POSITION FROM IPI36535
READING POSITION FROM IPI36536
READING POSITION FROM IPI36537
READING POSITION FROM IPI36538
READING POSITION FROM IPI36539
READING POSITION FROM IPI36540
READING POSITION FROM IPI36541
READING POSITION FROM IPI36542
READING POSITION FROM IPI36543
READING POSITION FROM IPI36544
READING POSITION FROM IPI36545
READING POSITION FROM IPI36546
READING POSITION FROM IPI36547
READING POSITION FROM IPI36548
READING POSITION FROM IPI36549
READING POSITION FROM IPI36550
READING POSITION FROM IPI36551
READING POSITION FROM IPI36552
READING POSITION FROM IPI36553
READING POSITION FROM IPI36554
READING POSITION FROM IPI36555
READING POSITION FROM IPI36556
READING POSITION FROM IPI36557
READING POSITION FROM IPI36558
READING POSITION FROM IPI36559
READING POSITION FROM IPI36560
READING POSITION FROM IPI36561
READING POSITION FROM IPI36562
READING POSITION FROM IPI36563
READING POSITION FROM IPI36564
READING POSITION FROM IPI36565
READING POSITION FROM IPI36566
READING POSITION FROM IPI36567
READING POSITION FROM IPI36568
READING POSITION FROM IPI36569
READING POSITION FROM IPI36570
READING POSITION FROM IPI36571
READING POSITION FROM IPI36572
READING POSITION FROM IPI36573
READING POSITION FROM IPI36574
READING POSITION FROM IPI36575
READING POSITION FROM IPI36576
READING POSITION FROM IPI36577
READING POSITION FROM IPI36578
READING POSITION FROM IPI36579
READING POSITION FROM IPI36580
READING POSITION FROM IPI36581
READING POSITION FROM IPI36582
READING POSITION FROM IPI36583
READING POSITION FROM IPI36584
READING POSITION FROM IPI36585
READING POSITION FROM IPI36586
READING POSITION FROM IPI36587
READING POSITION FROM IPI36588
READING POSITION FROM IPI36589
READING POSITION FROM IPI36590
READING POSITION FROM IPI36591
READING POSITION FROM IPI36592
READING POSITION FROM IPI36593
READING POSITION FROM IPI36594
READING POSITION FROM IPI36595
READING POSITION FROM IPI36596
READING POSITION FROM IPI36597
READING POSITION FROM IPI36598
READING POSITION FROM IPI36599
READING POSITION FROM IPI36600
   36600            0   -323.16643    34.667151   -288.49928    351.21652 
READING POSITION FROM IPI36601
READING POSITION FROM IPI36602
READING POSITION FROM IPI36603
READING POSITION FROM IPI36604
READING POSITION FROM IPI36605
READING POSITION FROM IPI36606
READING POSITION FROM IPI36607
READING POSITION FROM IPI36608
READING POSITION FROM IPI36609
READING POSITION FROM IPI36610
READING POSITION FROM IPI36611
READING POSITION FROM IPI36612
READING POSITION FROM IPI36613
READING POSITION FROM IPI36614
READING POSITION FROM IPI36615
READING POSITION FROM IPI36616
READING POSITION FROM IPI36617
READING POSITION FROM IPI36618
READING POSITION FROM IPI36619
READING POSITION FROM IPI36620
READING POSITION FROM IPI36621
READING POSITION FROM IPI36622
READING POSITION FROM IPI36623
READING POSITION FROM IPI36624
READING POSITION FROM IPI36625
READING POSITION FROM IPI36626
READING POSITION FROM IPI36627
READING POSITION FROM IPI36628
READING POSITION FROM IPI36629
READING POSITION FROM IPI36630
READING POSITION FROM IPI36631
READING POSITION FROM IPI36632
READING POSITION FROM IPI36633
READING POSITION FROM IPI36634
READING POSITION FROM IPI36635
READING POSITION FROM IPI36636
READING POSITION FROM IPI36637
READING POSITION FROM IPI36638
READING POSITION FROM IPI36639
READING POSITION FROM IPI36640
READING POSITION FROM IPI36641
READING POSITION FROM IPI36642
READING POSITION FROM IPI36643
READING POSITION FROM IPI36644
READING POSITION FROM IPI36645
READING POSITION FROM IPI36646
READING POSITION FROM IPI36647
READING POSITION FROM IPI36648
READING POSITION FROM IPI36649
READING POSITION FROM IPI36650
READING POSITION FROM IPI36651
READING POSITION FROM IPI36652
READING POSITION FROM IPI36653
READING POSITION FROM IPI36654
READING POSITION FROM IPI36655
READING POSITION FROM IPI36656
READING POSITION FROM IPI36657
READING POSITION FROM IPI36658
READING POSITION FROM IPI36659
READING POSITION FROM IPI36660
READING POSITION FROM IPI36661
READING POSITION FROM IPI36662
READING POSITION FROM IPI36663
READING POSITION FROM IPI36664
READING POSITION FROM IPI36665
READING POSITION FROM IPI36666
READING POSITION FROM IPI36667
READING POSITION FROM IPI36668
READING POSITION FROM IPI36669
READING POSITION FROM IPI36670
READING POSITION FROM IPI36671
READING POSITION FROM IPI36672
READING POSITION FROM IPI36673
READING POSITION FROM IPI36674
READING POSITION FROM IPI36675
READING POSITION FROM IPI36676
READING POSITION FROM IPI36677
READING POSITION FROM IPI36678
READING POSITION FROM IPI36679
READING POSITION FROM IPI36680
READING POSITION FROM IPI36681
READING POSITION FROM IPI36682
READING POSITION FROM IPI36683
READING POSITION FROM IPI36684
READING POSITION FROM IPI36685
READING POSITION FROM IPI36686
READING POSITION FROM IPI36687
READING POSITION FROM IPI36688
READING POSITION FROM IPI36689
READING POSITION FROM IPI36690
READING POSITION FROM IPI36691
READING POSITION FROM IPI36692
READING POSITION FROM IPI36693
READING POSITION FROM IPI36694
READING POSITION FROM IPI36695
READING POSITION FROM IPI36696
READING POSITION FROM IPI36697
READING POSITION FROM IPI36698
READING POSITION FROM IPI36699
READING POSITION FROM IPI36700
   36700            0   -323.16643    34.667151   -288.49928    351.21652 
READING POSITION FROM IPI36701
READING POSITION FROM IPI36702
READING POSITION FROM IPI36703
READING POSITION FROM IPI36704
READING POSITION FROM IPI36705
READING POSITION FROM IPI36706
READING POSITION FROM IPI36707
READING POSITION FROM IPI36708
READING POSITION FROM IPI36709
READING POSITION FROM IPI36710
READING POSITION FROM IPI36711
READING POSITION FROM IPI36712
READING POSITION FROM IPI36713
READING POSITION FROM IPI36714
READING POSITION FROM IPI36715
READING POSITION FROM IPI36716
READING POSITION FROM IPI36717
READING POSITION FROM IPI36718
READING POSITION FROM IPI36719
READING POSITION FROM IPI36720
READING POSITION FROM IPI36721
READING POSITION FROM IPI36722
READING POSITION FROM IPI36723
READING POSITION FROM IPI36724
READING POSITION FROM IPI36725
READING POSITION FROM IPI36726
READING POSITION FROM IPI36727
READING POSITION FROM IPI36728
READING POSITION FROM IPI36729
READING POSITION FROM IPI36730
READING POSITION FROM IPI36731
READING POSITION FROM IPI36732
READING POSITION FROM IPI36733
READING POSITION FROM IPI36734
READING POSITION FROM IPI36735
READING POSITION FROM IPI36736
READING POSITION FROM IPI36737
READING POSITION FROM IPI36738
READING POSITION FROM IPI36739
READING POSITION FROM IPI36740
READING POSITION FROM IPI36741
READING POSITION FROM IPI36742
READING POSITION FROM IPI36743
READING POSITION FROM IPI36744
READING POSITION FROM IPI36745
READING POSITION FROM IPI36746
READING POSITION FROM IPI36747
READING POSITION FROM IPI36748
READING POSITION FROM IPI36749
READING POSITION FROM IPI36750
READING POSITION FROM IPI36751
READING POSITION FROM IPI36752
READING POSITION FROM IPI36753
READING POSITION FROM IPI36754
READING POSITION FROM IPI36755
READING POSITION FROM IPI36756
READING POSITION FROM IPI36757
READING POSITION FROM IPI36758
READING POSITION FROM IPI36759
READING POSITION FROM IPI36760
READING POSITION FROM IPI36761
READING POSITION FROM IPI36762
READING POSITION FROM IPI36763
READING POSITION FROM IPI36764
READING POSITION FROM IPI36765
READING POSITION FROM IPI36766
READING POSITION FROM IPI36767
READING POSITION FROM IPI36768
READING POSITION FROM IPI36769
READING POSITION FROM IPI36770
READING POSITION FROM IPI36771
READING POSITION FROM IPI36772
READING POSITION FROM IPI36773
READING POSITION FROM IPI36774
READING POSITION FROM IPI36775
READING POSITION FROM IPI36776
READING POSITION FROM IPI36777
READING POSITION FROM IPI36778
READING POSITION FROM IPI36779
READING POSITION FROM IPI36780
READING POSITION FROM IPI36781
READING POSITION FROM IPI36782
READING POSITION FROM IPI36783
READING POSITION FROM IPI36784
READING POSITION FROM IPI36785
READING POSITION FROM IPI36786
READING POSITION FROM IPI36787
READING POSITION FROM IPI36788
READING POSITION FROM IPI36789
READING POSITION FROM IPI36790
READING POSITION FROM IPI36791
READING POSITION FROM IPI36792
READING POSITION FROM IPI36793
READING POSITION FROM IPI36794
READING POSITION FROM IPI36795
READING POSITION FROM IPI36796
READING POSITION FROM IPI36797
READING POSITION FROM IPI36798
READING POSITION FROM IPI36799
READING POSITION FROM IPI36800
   36800            0   -323.16643    34.667151   -288.49928    351.21652 
READING POSITION FROM IPI36801
READING POSITION FROM IPI36802
READING POSITION FROM IPI36803
READING POSITION FROM IPI36804
READING POSITION FROM IPI36805
READING POSITION FROM IPI36806
READING POSITION FROM IPI36807
READING POSITION FROM IPI36808
READING POSITION FROM IPI36809
READING POSITION FROM IPI36810
READING POSITION FROM IPI36811
READING POSITION FROM IPI36812
READING POSITION FROM IPI36813
READING POSITION FROM IPI36814
READING POSITION FROM IPI36815
READING POSITION FROM IPI36816
READING POSITION FROM IPI36817
READING POSITION FROM IPI36818
READING POSITION FROM IPI36819
READING POSITION FROM IPI36820
READING POSITION FROM IPI36821
READING POSITION FROM IPI36822
READING POSITION FROM IPI36823
READING POSITION FROM IPI36824
READING POSITION FROM IPI36825
READING POSITION FROM IPI36826
READING POSITION FROM IPI36827
READING POSITION FROM IPI36828
READING POSITION FROM IPI36829
READING POSITION FROM IPI36830
READING POSITION FROM IPI36831
READING POSITION FROM IPI36832
READING POSITION FROM IPI36833
READING POSITION FROM IPI36834
READING POSITION FROM IPI36835
READING POSITION FROM IPI36836
READING POSITION FROM IPI36837
READING POSITION FROM IPI36838
READING POSITION FROM IPI36839
READING POSITION FROM IPI36840
READING POSITION FROM IPI36841
READING POSITION FROM IPI36842
READING POSITION FROM IPI36843
READING POSITION FROM IPI36844
READING POSITION FROM IPI36845
READING POSITION FROM IPI36846
READING POSITION FROM IPI36847
READING POSITION FROM IPI36848
READING POSITION FROM IPI36849
READING POSITION FROM IPI36850
READING POSITION FROM IPI36851
READING POSITION FROM IPI36852
READING POSITION FROM IPI36853
READING POSITION FROM IPI36854
READING POSITION FROM IPI36855
READING POSITION FROM IPI36856
READING POSITION FROM IPI36857
READING POSITION FROM IPI36858
READING POSITION FROM IPI36859
READING POSITION FROM IPI36860
READING POSITION FROM IPI36861
READING POSITION FROM IPI36862
READING POSITION FROM IPI36863
READING POSITION FROM IPI36864
READING POSITION FROM IPI36865
READING POSITION FROM IPI36866
READING POSITION FROM IPI36867
READING POSITION FROM IPI36868
READING POSITION FROM IPI36869
READING POSITION FROM IPI36870
READING POSITION FROM IPI36871
READING POSITION FROM IPI36872
READING POSITION FROM IPI36873
READING POSITION FROM IPI36874
READING POSITION FROM IPI36875
READING POSITION FROM IPI36876
READING POSITION FROM IPI36877
READING POSITION FROM IPI36878
READING POSITION FROM IPI36879
READING POSITION FROM IPI36880
READING POSITION FROM IPI36881
READING POSITION FROM IPI36882
READING POSITION FROM IPI36883
READING POSITION FROM IPI36884
READING POSITION FROM IPI36885
READING POSITION FROM IPI36886
READING POSITION FROM IPI36887
READING POSITION FROM IPI36888
READING POSITION FROM IPI36889
READING POSITION FROM IPI36890
READING POSITION FROM IPI36891
READING POSITION FROM IPI36892
READING POSITION FROM IPI36893
READING POSITION FROM IPI36894
READING POSITION FROM IPI36895
READING POSITION FROM IPI36896
READING POSITION FROM IPI36897
READING POSITION FROM IPI36898
READING POSITION FROM IPI36899
READING POSITION FROM IPI36900
   36900            0   -323.16643    34.667151   -288.49928    351.21652 
READING POSITION FROM IPI36901
READING POSITION FROM IPI36902
READING POSITION FROM IPI36903
READING POSITION FROM IPI36904
READING POSITION FROM IPI36905
READING POSITION FROM IPI36906
READING POSITION FROM IPI36907
READING POSITION FROM IPI36908
READING POSITION FROM IPI36909
READING POSITION FROM IPI36910
READING POSITION FROM IPI36911
READING POSITION FROM IPI36912
READING POSITION FROM IPI36913
READING POSITION FROM IPI36914
READING POSITION FROM IPI36915
READING POSITION FROM IPI36916
READING POSITION FROM IPI36917
READING POSITION FROM IPI36918
READING POSITION FROM IPI36919
READING POSITION FROM IPI36920
READING POSITION FROM IPI36921
READING POSITION FROM IPI36922
READING POSITION FROM IPI36923
READING POSITION FROM IPI36924
READING POSITION FROM IPI36925
READING POSITION FROM IPI36926
READING POSITION FROM IPI36927
READING POSITION FROM IPI36928
READING POSITION FROM IPI36929
READING POSITION FROM IPI36930
READING POSITION FROM IPI36931
READING POSITION FROM IPI36932
READING POSITION FROM IPI36933
READING POSITION FROM IPI36934
READING POSITION FROM IPI36935
READING POSITION FROM IPI36936
READING POSITION FROM IPI36937
READING POSITION FROM IPI36938
READING POSITION FROM IPI36939
READING POSITION FROM IPI36940
READING POSITION FROM IPI36941
READING POSITION FROM IPI36942
READING POSITION FROM IPI36943
READING POSITION FROM IPI36944
READING POSITION FROM IPI36945
READING POSITION FROM IPI36946
READING POSITION FROM IPI36947
READING POSITION FROM IPI36948
READING POSITION FROM IPI36949
READING POSITION FROM IPI36950
READING POSITION FROM IPI36951
READING POSITION FROM IPI36952
READING POSITION FROM IPI36953
READING POSITION FROM IPI36954
READING POSITION FROM IPI36955
READING POSITION FROM IPI36956
READING POSITION FROM IPI36957
READING POSITION FROM IPI36958
READING POSITION FROM IPI36959
READING POSITION FROM IPI36960
READING POSITION FROM IPI36961
READING POSITION FROM IPI36962
READING POSITION FROM IPI36963
READING POSITION FROM IPI36964
READING POSITION FROM IPI36965
READING POSITION FROM IPI36966
READING POSITION FROM IPI36967
READING POSITION FROM IPI36968
READING POSITION FROM IPI36969
READING POSITION FROM IPI36970
READING POSITION FROM IPI36971
READING POSITION FROM IPI36972
READING POSITION FROM IPI36973
READING POSITION FROM IPI36974
READING POSITION FROM IPI36975
READING POSITION FROM IPI36976
READING POSITION FROM IPI36977
READING POSITION FROM IPI36978
READING POSITION FROM IPI36979
READING POSITION FROM IPI36980
READING POSITION FROM IPI36981
READING POSITION FROM IPI36982
READING POSITION FROM IPI36983
READING POSITION FROM IPI36984
READING POSITION FROM IPI36985
READING POSITION FROM IPI36986
READING POSITION FROM IPI36987
READING POSITION FROM IPI36988
READING POSITION FROM IPI36989
READING POSITION FROM IPI36990
READING POSITION FROM IPI36991
READING POSITION FROM IPI36992
READING POSITION FROM IPI36993
READING POSITION FROM IPI36994
READING POSITION FROM IPI36995
READING POSITION FROM IPI36996
READING POSITION FROM IPI36997
READING POSITION FROM IPI36998
READING POSITION FROM IPI36999
READING POSITION FROM IPI37000
   37000            0   -323.16643    34.667151   -288.49928    351.21652 
READING POSITION FROM IPI37001
READING POSITION FROM IPI37002
READING POSITION FROM IPI37003
READING POSITION FROM IPI37004
READING POSITION FROM IPI37005
READING POSITION FROM IPI37006
READING POSITION FROM IPI37007
READING POSITION FROM IPI37008
READING POSITION FROM IPI37009
READING POSITION FROM IPI37010
READING POSITION FROM IPI37011
READING POSITION FROM IPI37012
READING POSITION FROM IPI37013
READING POSITION FROM IPI37014
READING POSITION FROM IPI37015
READING POSITION FROM IPI37016
READING POSITION FROM IPI37017
READING POSITION FROM IPI37018
READING POSITION FROM IPI37019
READING POSITION FROM IPI37020
READING POSITION FROM IPI37021
READING POSITION FROM IPI37022
READING POSITION FROM IPI37023
READING POSITION FROM IPI37024
READING POSITION FROM IPI37025
READING POSITION FROM IPI37026
READING POSITION FROM IPI37027
READING POSITION FROM IPI37028
READING POSITION FROM IPI37029
READING POSITION FROM IPI37030
READING POSITION FROM IPI37031
READING POSITION FROM IPI37032
READING POSITION FROM IPI37033
READING POSITION FROM IPI37034
READING POSITION FROM IPI37035
READING POSITION FROM IPI37036
READING POSITION FROM IPI37037
READING POSITION FROM IPI37038
READING POSITION FROM IPI37039
READING POSITION FROM IPI37040
READING POSITION FROM IPI37041
READING POSITION FROM IPI37042
READING POSITION FROM IPI37043
READING POSITION FROM IPI37044
READING POSITION FROM IPI37045
READING POSITION FROM IPI37046
READING POSITION FROM IPI37047
READING POSITION FROM IPI37048
READING POSITION FROM IPI37049
READING POSITION FROM IPI37050
READING POSITION FROM IPI37051
READING POSITION FROM IPI37052
READING POSITION FROM IPI37053
READING POSITION FROM IPI37054
READING POSITION FROM IPI37055
READING POSITION FROM IPI37056
READING POSITION FROM IPI37057
READING POSITION FROM IPI37058
READING POSITION FROM IPI37059
READING POSITION FROM IPI37060
READING POSITION FROM IPI37061
READING POSITION FROM IPI37062
READING POSITION FROM IPI37063
READING POSITION FROM IPI37064
READING POSITION FROM IPI37065
READING POSITION FROM IPI37066
READING POSITION FROM IPI37067
READING POSITION FROM IPI37068
READING POSITION FROM IPI37069
READING POSITION FROM IPI37070
READING POSITION FROM IPI37071
READING POSITION FROM IPI37072
READING POSITION FROM IPI37073
READING POSITION FROM IPI37074
READING POSITION FROM IPI37075
READING POSITION FROM IPI37076
READING POSITION FROM IPI37077
READING POSITION FROM IPI37078
READING POSITION FROM IPI37079
READING POSITION FROM IPI37080
READING POSITION FROM IPI37081
READING POSITION FROM IPI37082
READING POSITION FROM IPI37083
READING POSITION FROM IPI37084
READING POSITION FROM IPI37085
READING POSITION FROM IPI37086
READING POSITION FROM IPI37087
READING POSITION FROM IPI37088
ERROR on proc 0: Got EXIT message from i-PI. Now leaving! (../fix_ipi.cpp:289)
